<?xml version="1.0" encoding="UTF-8"?>

<!-- generated on 2023-07-13 13:18:05 by Eclipse SUMO sumo Version 1.18.0
<configuration xmlns:xsi="http://www.w3.org/2001/XMLSchema-instance" xsi:noNamespaceSchemaLocation="http://sumo.dlr.de/xsd/sumoConfiguration.xsd">

    <input>
        <net-file value="net_jkt-new/jkt-new.net.xml"/>
        <route-files value="net_jkt-new/jkt-new.rou.xml"/>
        <additional-files value="net_jkt-new/jkt-new.add.xml"/>
    </input>

    <output>
        <summary-output value="net_jkt-new/output/summarydqn.xml"/>
        <tripinfo-output value="net_jkt-new/output/tripinfodqn.xml"/>
        <statistic-output value="net_jkt-new/output/statisticdqn.xml"/>
    </output>

    <time>
        <begin value=" 28800"/>
        <end value="82800"/>
    </time>

    <processing>
        <time-to-teleport value="-1"/>
        <waiting-time-memory value="1000"/>
        <max-depart-delay value="100000"/>
    </processing>

    <traci_server>
        <remote-port value="63970"/>
    </traci_server>

    <random_number>
        <random value="true"/>
    </random_number>

    <gui_only>
        <gui-settings-file value="net_jkt-new/guisettings.cfg"/>
    </gui_only>

</configuration>
-->

<tripinfos xmlns:xsi="http://www.w3.org/2001/XMLSchema-instance" xsi:noNamespaceSchemaLocation="http://sumo.dlr.de/xsd/tripinfo_file.xsd">
