<?xml version="1.0" encoding="UTF-8"?>

<!-- generated on 2023-06-08 17:55:24 by Eclipse SUMO sumo Version 1.14.1
<configuration xmlns:xsi="http://www.w3.org/2001/XMLSchema-instance" xsi:noNamespaceSchemaLocation="http://sumo.dlr.de/xsd/sumoConfiguration.xsd">

    <input>
        <net-file value="net_jkt-new/jkt-new.net.xml"/>
        <route-files value="net_jkt-new/jkt-new.rou.xml"/>
        <additional-files value="net_jkt-new/jkt-new.add.xml"/>
    </input>

    <output>
        <summary-output value="net_jkt-new/output/summarydqn.xml"/>
        <tripinfo-output value="net_jkt-new/output/tripinfodqn.xml"/>
        <statistic-output value="net_jkt-new/output/statisticdqn.xml"/>
    </output>

    <time>
        <begin value=" 28800"/>
        <end value="82800"/>
    </time>

    <processing>
        <time-to-teleport value="-1"/>
        <waiting-time-memory value="1000"/>
        <max-depart-delay value="100000"/>
    </processing>

    <traci_server>
        <remote-port value="51980"/>
    </traci_server>

    <random_number>
        <random value="true"/>
    </random_number>

    <gui_only>
        <gui-settings-file value="net_jkt-new/guisettings.cfg"/>
    </gui_only>

</configuration>
-->

<tripinfos xmlns:xsi="http://www.w3.org/2001/XMLSchema-instance" xsi:noNamespaceSchemaLocation="http://sumo.dlr.de/xsd/tripinfo_file.xsd">
    <tripinfo id="flE3_st28800.0.0" depart="28801.00" departLane="E3_0" departPos="1.87" departSpeed="0.00" departDelay="0.43" arrival="28852.00" arrivalLane="E3_0" arrivalPos="734.36" arrivalSpeed="14.96" duration="51.00" routeLength="732.49" waitingTime="0.00" waitingCount="0" stopTime="0.00" timeLoss="1.66" rerouteNo="0" devices="tripinfo_flE3_st28800.0.0" vType="t610_D3" speedFactor="1.08" vaporized=""/>
    <tripinfo id="flE3_st28800.0.2" depart="28804.00" departLane="E3_0" departPos="1.87" departSpeed="0.00" departDelay="1.50" arrival="28858.00" arrivalLane="E3_0" arrivalPos="734.36" arrivalSpeed="14.10" duration="54.00" routeLength="732.49" waitingTime="0.00" waitingCount="0" stopTime="0.00" timeLoss="1.52" rerouteNo="0" devices="tripinfo_flE3_st28800.0.2" vType="t620_D3" speedFactor="1.02" vaporized=""/>
    <tripinfo id="flE0_st28800.0.0" depart="28803.00" departLane="E0_0" departPos="12.50" departSpeed="0.00" departDelay="0.39" arrival="28862.00" arrivalLane="E7.29_0" arrivalPos="200.50" arrivalSpeed="11.53" duration="59.00" routeLength="457.09" waitingTime="9.00" waitingCount="1" stopTime="0.00" timeLoss="18.78" rerouteNo="0" devices="tripinfo_flE0_st28800.0.0" vType="t300_D3" speedFactor="1.00" vaporized=""/>
    <tripinfo id="flE0_st28800.0.5" depart="28812.00" departLane="E0_0" departPos="1.87" departSpeed="0.00" departDelay="5.24" arrival="28865.00" arrivalLane="E7.29_0" arrivalPos="200.50" arrivalSpeed="15.20" duration="53.00" routeLength="467.72" waitingTime="0.00" waitingCount="0" stopTime="0.00" timeLoss="21.32" rerouteNo="0" devices="tripinfo_flE0_st28800.0.5" vType="t610_D3" speedFactor="1.09" vaporized=""/>
    <tripinfo id="fl136_st28800.0.2" depart="28806.00" departLane="136_0" departPos="1.87" departSpeed="0.00" departDelay="1.83" arrival="28867.00" arrivalLane="135.7_0" arrivalPos="284.04" arrivalSpeed="13.54" duration="61.00" routeLength="655.63" waitingTime="0.00" waitingCount="0" stopTime="0.00" timeLoss="11.31" rerouteNo="0" devices="tripinfo_fl136_st28800.0.2" vType="t610_D3" speedFactor="0.97" vaporized=""/>
    <tripinfo id="flE3_st28800.0.1" depart="28803.00" departLane="E3_0" departPos="4.47" departSpeed="0.00" departDelay="1.89" arrival="28868.00" arrivalLane="E3_0" arrivalPos="734.36" arrivalSpeed="11.67" duration="65.00" routeLength="729.89" waitingTime="0.00" waitingCount="0" stopTime="0.00" timeLoss="1.96" rerouteNo="0" devices="tripinfo_flE3_st28800.0.1" vType="t100_D3" speedFactor="0.92" vaporized=""/>
    <tripinfo id="flE3_st28800.0.3" depart="28806.00" departLane="E3_0" departPos="1.87" departSpeed="0.00" departDelay="2.83" arrival="28870.00" arrivalLane="E3_0" arrivalPos="734.36" arrivalSpeed="13.39" duration="64.00" routeLength="732.49" waitingTime="0.00" waitingCount="0" stopTime="0.00" timeLoss="8.65" rerouteNo="0" devices="tripinfo_flE3_st28800.0.3" vType="t610_D3" speedFactor="0.96" vaporized=""/>
    <tripinfo id="flE3_st28800.0.5" depart="28809.00" departLane="E3_0" departPos="1.87" departSpeed="0.00" departDelay="4.44" arrival="28872.00" arrivalLane="E3_0" arrivalPos="734.36" arrivalSpeed="12.45" duration="63.00" routeLength="732.49" waitingTime="0.00" waitingCount="0" stopTime="0.00" timeLoss="3.69" rerouteNo="0" devices="tripinfo_flE3_st28800.0.5" vType="t610_D3" speedFactor="0.90" vaporized=""/>
    <tripinfo id="flE3_st28800.0.6" depart="28811.00" departLane="E3_0" departPos="1.87" departSpeed="0.00" departDelay="5.41" arrival="28872.00" arrivalLane="E3_1" arrivalPos="734.36" arrivalSpeed="13.63" duration="61.00" routeLength="732.49" waitingTime="0.00" waitingCount="0" stopTime="0.00" timeLoss="6.61" rerouteNo="0" devices="tripinfo_flE3_st28800.0.6" vType="t610_D3" speedFactor="0.98" vaporized=""/>
    <tripinfo id="flE3_st28800.0.8" depart="28815.00" departLane="E3_0" departPos="1.87" departSpeed="0.00" departDelay="7.39" arrival="28874.00" arrivalLane="E3_1" arrivalPos="734.36" arrivalSpeed="13.59" duration="59.00" routeLength="732.49" waitingTime="0.00" waitingCount="0" stopTime="0.00" timeLoss="4.93" rerouteNo="0" devices="tripinfo_flE3_st28800.0.8" vType="t610_D3" speedFactor="0.98" vaporized=""/>
    <tripinfo id="fl118_st25200.0.3005" depart="28801.00" departLane="118_0" departPos="1.87" departSpeed="0.00" departDelay="0.95" arrival="28875.00" arrivalLane="117_4" arrivalPos="236.97" arrivalSpeed="15.56" duration="74.00" routeLength="905.99" waitingTime="10.00" waitingCount="1" stopTime="0.00" timeLoss="14.19" rerouteNo="0" devices="tripinfo_fl118_st25200.0.3005" vType="t610_D3" speedFactor="1.18" vaporized=""/>
    <tripinfo id="flE0_st28800.0.6" depart="28814.00" departLane="E0_0" departPos="1.87" departSpeed="0.00" departDelay="4.96" arrival="28875.00" arrivalLane="E7.29_0" arrivalPos="200.50" arrivalSpeed="13.86" duration="61.00" routeLength="467.72" waitingTime="9.00" waitingCount="1" stopTime="0.00" timeLoss="26.59" rerouteNo="0" devices="tripinfo_flE0_st28800.0.6" vType="t610_D3" speedFactor="1.00" vaporized=""/>
    <tripinfo id="flE3_st28800.0.4" depart="28808.00" departLane="E3_0" departPos="4.47" departSpeed="0.00" departDelay="3.75" arrival="28879.00" arrivalLane="E3_0" arrivalPos="734.36" arrivalSpeed="10.72" duration="71.00" routeLength="729.89" waitingTime="1.00" waitingCount="1" stopTime="0.00" timeLoss="2.04" rerouteNo="0" devices="tripinfo_flE3_st28800.0.4" vType="t100_D3" speedFactor="0.77" vaporized=""/>
    <tripinfo id="fl131_st28800.0.1" depart="28804.00" departLane="131_0" departPos="1.87" departSpeed="0.00" departDelay="1.49" arrival="28880.00" arrivalLane="128_1" arrivalPos="149.18" arrivalSpeed="13.97" duration="76.00" routeLength="646.88" waitingTime="16.00" waitingCount="1" stopTime="0.00" timeLoss="27.82" rerouteNo="0" devices="tripinfo_fl131_st28800.0.1" vType="t610_D3" speedFactor="1.01" vaporized=""/>
    <tripinfo id="flE3_st28800.0.7" depart="28812.00" departLane="E3_0" departPos="4.47" departSpeed="0.00" departDelay="6.12" arrival="28881.00" arrivalLane="E3_0" arrivalPos="734.36" arrivalSpeed="11.67" duration="69.00" routeLength="729.89" waitingTime="0.00" waitingCount="0" stopTime="0.00" timeLoss="5.69" rerouteNo="0" devices="tripinfo_flE3_st28800.0.7" vType="t100_D3" speedFactor="1.16" vaporized=""/>
    <tripinfo id="fl118_st28800.0.3" depart="28809.00" departLane="118_0" departPos="1.87" departSpeed="0.00" departDelay="4.95" arrival="28882.00" arrivalLane="117_4" arrivalPos="236.97" arrivalSpeed="14.50" duration="73.00" routeLength="905.99" waitingTime="0.00" waitingCount="0" stopTime="0.00" timeLoss="9.49" rerouteNo="0" devices="tripinfo_fl118_st28800.0.3" vType="t610_D3" speedFactor="1.04" vaporized=""/>
    <tripinfo id="flE3_st28800.0.10" depart="28818.00" departLane="E3_0" departPos="1.87" departSpeed="0.00" departDelay="7.02" arrival="28882.00" arrivalLane="E3_1" arrivalPos="734.36" arrivalSpeed="12.00" duration="64.00" routeLength="732.49" waitingTime="0.00" waitingCount="0" stopTime="0.00" timeLoss="2.51" rerouteNo="0" devices="tripinfo_flE3_st28800.0.10" vType="t610_D3" speedFactor="0.86" vaporized=""/>
    <tripinfo id="flE3_st28800.0.9" depart="28816.00" departLane="E3_0" departPos="1.87" departSpeed="0.00" departDelay="6.35" arrival="28883.00" arrivalLane="E3_0" arrivalPos="734.36" arrivalSpeed="12.42" duration="67.00" routeLength="732.49" waitingTime="0.00" waitingCount="0" stopTime="0.00" timeLoss="7.80" rerouteNo="0" devices="tripinfo_flE3_st28800.0.9" vType="t610_D3" speedFactor="0.89" vaporized=""/>
    <tripinfo id="flE0_st28800.0.14" depart="28831.00" departLane="E0_0" departPos="1.87" departSpeed="0.00" departDelay="17.09" arrival="28883.00" arrivalLane="E2.444_1" arrivalPos="147.68" arrivalSpeed="14.14" duration="52.00" routeLength="520.65" waitingTime="0.00" waitingCount="0" stopTime="0.00" timeLoss="13.97" rerouteNo="0" devices="tripinfo_flE0_st28800.0.14" vType="t610_D3" speedFactor="1.02" vaporized=""/>
    <tripinfo id="flE3_st28800.0.12" depart="28821.00" departLane="E3_0" departPos="1.87" departSpeed="0.00" departDelay="5.48" arrival="28884.00" arrivalLane="E3_1" arrivalPos="734.36" arrivalSpeed="13.75" duration="63.00" routeLength="732.49" waitingTime="0.00" waitingCount="0" stopTime="0.00" timeLoss="8.81" rerouteNo="0" devices="tripinfo_flE3_st28800.0.12" vType="t610_D3" speedFactor="0.99" vaporized=""/>
    <tripinfo id="fl118_st28800.0.4" depart="28813.00" departLane="118_0" departPos="1.87" departSpeed="0.00" departDelay="8.33" arrival="28885.00" arrivalLane="117_4" arrivalPos="236.97" arrivalSpeed="15.03" duration="72.00" routeLength="905.99" waitingTime="0.00" waitingCount="0" stopTime="0.00" timeLoss="11.01" rerouteNo="0" devices="tripinfo_fl118_st28800.0.4" vType="t610_D3" speedFactor="1.08" vaporized=""/>
    <tripinfo id="flE3_st28800.0.11" depart="28819.00" departLane="E3_0" departPos="1.87" departSpeed="0.00" departDelay="5.93" arrival="28885.00" arrivalLane="E3_0" arrivalPos="734.36" arrivalSpeed="15.56" duration="66.00" routeLength="732.49" waitingTime="0.00" waitingCount="0" stopTime="0.00" timeLoss="18.79" rerouteNo="0" devices="tripinfo_flE3_st28800.0.11" vType="t620_D3" speedFactor="1.15" vaporized=""/>
    <tripinfo id="flE3_st28800.0.13" depart="28823.00" departLane="E3_0" departPos="1.87" departSpeed="0.00" departDelay="7.10" arrival="28887.00" arrivalLane="E3_1" arrivalPos="734.36" arrivalSpeed="12.59" duration="64.00" routeLength="732.49" waitingTime="0.00" waitingCount="0" stopTime="0.00" timeLoss="5.07" rerouteNo="0" devices="tripinfo_flE3_st28800.0.13" vType="t610_D3" speedFactor="0.91" vaporized=""/>
    <tripinfo id="fl131_st28800.0.7" depart="28838.00" departLane="131_0" departPos="1.87" departSpeed="0.00" departDelay="6.40" arrival="28889.00" arrivalLane="128_1" arrivalPos="149.18" arrivalSpeed="14.29" duration="51.00" routeLength="646.88" waitingTime="0.00" waitingCount="0" stopTime="0.00" timeLoss="4.10" rerouteNo="0" devices="tripinfo_fl131_st28800.0.7" vType="t610_D3" speedFactor="1.03" vaporized=""/>
    <tripinfo id="flE3_st28800.0.14" depart="28825.00" departLane="E3_0" departPos="1.87" departSpeed="0.00" departDelay="8.69" arrival="28890.00" arrivalLane="E3_0" arrivalPos="734.36" arrivalSpeed="11.87" duration="65.00" routeLength="732.49" waitingTime="0.00" waitingCount="0" stopTime="0.00" timeLoss="2.45" rerouteNo="0" devices="tripinfo_flE3_st28800.0.14" vType="t610_D3" speedFactor="0.85" vaporized=""/>
    <tripinfo id="flE0_st28800.0.18" depart="28837.00" departLane="E0_0" departPos="4.47" departSpeed="0.00" departDelay="13.51" arrival="28890.00" arrivalLane="E2.444_1" arrivalPos="147.68" arrivalSpeed="11.67" duration="53.00" routeLength="507.67" waitingTime="0.00" waitingCount="0" stopTime="0.00" timeLoss="9.30" rerouteNo="0" devices="tripinfo_flE0_st28800.0.18" vType="t100_D3" speedFactor="0.97" vaporized=""/>
    <tripinfo id="flE3_st28800.0.15" depart="28827.00" departLane="E3_0" departPos="4.47" departSpeed="0.00" departDelay="10.66" arrival="28891.00" arrivalLane="E3_1" arrivalPos="734.36" arrivalSpeed="11.67" duration="64.00" routeLength="729.89" waitingTime="0.00" waitingCount="0" stopTime="0.00" timeLoss="1.31" rerouteNo="0" devices="tripinfo_flE3_st28800.0.15" vType="t100_D3" speedFactor="0.87" vaporized=""/>
    <tripinfo id="flE3_st28800.0.17" depart="28830.00" departLane="E3_0" departPos="1.87" departSpeed="0.00" departDelay="12.64" arrival="28892.00" arrivalLane="E3_0" arrivalPos="734.36" arrivalSpeed="14.27" duration="62.00" routeLength="732.49" waitingTime="0.00" waitingCount="0" stopTime="0.00" timeLoss="9.72" rerouteNo="0" devices="tripinfo_flE3_st28800.0.17" vType="t610_D3" speedFactor="1.03" vaporized=""/>
    <tripinfo id="fl131_st28800.0.8" depart="28839.00" departLane="131_0" departPos="1.87" departSpeed="0.00" departDelay="7.29" arrival="28893.00" arrivalLane="128_1" arrivalPos="149.18" arrivalSpeed="14.87" duration="54.00" routeLength="646.88" waitingTime="0.00" waitingCount="0" stopTime="0.00" timeLoss="8.72" rerouteNo="0" devices="tripinfo_fl131_st28800.0.8" vType="t620_D3" speedFactor="1.07" vaporized=""/>
    <tripinfo id="flE3_st28800.0.16" depart="28829.00" departLane="E3_0" departPos="4.47" departSpeed="0.00" departDelay="12.40" arrival="28894.00" arrivalLane="E3_1" arrivalPos="734.36" arrivalSpeed="11.67" duration="65.00" routeLength="729.89" waitingTime="0.00" waitingCount="0" stopTime="0.00" timeLoss="2.08" rerouteNo="0" devices="tripinfo_flE3_st28800.0.16" vType="t100_D3" speedFactor="0.93" vaporized=""/>
    <tripinfo id="flE3_st28800.0.18" depart="28832.00" departLane="E3_0" departPos="1.87" departSpeed="0.00" departDelay="13.46" arrival="28894.00" arrivalLane="E3_0" arrivalPos="734.36" arrivalSpeed="13.25" duration="62.00" routeLength="732.49" waitingTime="0.00" waitingCount="0" stopTime="0.00" timeLoss="5.92" rerouteNo="0" devices="tripinfo_flE3_st28800.0.18" vType="t610_D3" speedFactor="0.95" vaporized=""/>
    <tripinfo id="flE3_st28800.0.20" depart="28837.00" departLane="E3_0" departPos="1.87" departSpeed="0.00" departDelay="18.24" arrival="28896.00" arrivalLane="E3_1" arrivalPos="734.36" arrivalSpeed="14.93" duration="59.00" routeLength="732.49" waitingTime="1.00" waitingCount="1" stopTime="0.00" timeLoss="9.56" rerouteNo="0" devices="tripinfo_flE3_st28800.0.20" vType="t620_D3" speedFactor="1.07" vaporized=""/>
    <tripinfo id="fl165_st28800.0.0" depart="28804.00" departLane="165_0" departPos="1.87" departSpeed="0.00" departDelay="0.13" arrival="28897.00" arrivalLane="E2.444_0" arrivalPos="147.68" arrivalSpeed="14.10" duration="93.00" routeLength="1170.67" waitingTime="6.00" waitingCount="1" stopTime="0.00" timeLoss="9.42" rerouteNo="0" devices="tripinfo_fl165_st28800.0.0" vType="t610_D3" speedFactor="1.01" vaporized=""/>
    <tripinfo id="flE3_st28800.0.21" depart="28838.00" departLane="E3_0" departPos="1.87" departSpeed="0.00" departDelay="19.05" arrival="28897.00" arrivalLane="E3_0" arrivalPos="734.36" arrivalSpeed="13.53" duration="59.00" routeLength="732.49" waitingTime="0.00" waitingCount="0" stopTime="0.00" timeLoss="4.70" rerouteNo="0" devices="tripinfo_flE3_st28800.0.21" vType="t610_D3" speedFactor="0.97" vaporized=""/>
    <tripinfo id="flE3_st28800.0.22" depart="28842.00" departLane="E3_0" departPos="1.87" departSpeed="0.00" departDelay="21.49" arrival="28899.00" arrivalLane="E3_1" arrivalPos="734.36" arrivalSpeed="15.56" duration="57.00" routeLength="732.49" waitingTime="0.00" waitingCount="0" stopTime="0.00" timeLoss="9.31" rerouteNo="0" devices="tripinfo_flE3_st28800.0.22" vType="t610_D3" speedFactor="1.12" vaporized=""/>
    <tripinfo id="fl118_st28800.0.7" depart="28819.00" departLane="118_0" departPos="1.87" departSpeed="0.00" departDelay="9.24" arrival="28900.00" arrivalLane="117_4" arrivalPos="236.97" arrivalSpeed="15.56" duration="81.00" routeLength="905.99" waitingTime="11.00" waitingCount="2" stopTime="0.00" timeLoss="21.19" rerouteNo="0" devices="tripinfo_fl118_st28800.0.7" vType="t610_D3" speedFactor="1.19" vaporized=""/>
    <tripinfo id="flE3_st28800.0.19" depart="28834.00" departLane="E3_0" departPos="12.50" departSpeed="0.00" departDelay="15.35" arrival="28902.00" arrivalLane="E3_0" arrivalPos="734.36" arrivalSpeed="11.53" duration="68.00" routeLength="721.86" waitingTime="0.00" waitingCount="0" stopTime="0.00" timeLoss="4.95" rerouteNo="0" devices="tripinfo_flE3_st28800.0.19" vType="t300_D3" speedFactor="1.00" vaporized=""/>
    <tripinfo id="flE3_st28800.0.25" depart="28848.00" departLane="E3_0" departPos="1.87" departSpeed="0.00" departDelay="25.23" arrival="28904.00" arrivalLane="E3_1" arrivalPos="734.36" arrivalSpeed="13.67" duration="56.00" routeLength="732.49" waitingTime="0.00" waitingCount="0" stopTime="0.00" timeLoss="1.47" rerouteNo="0" devices="tripinfo_flE3_st28800.0.25" vType="t610_D3" speedFactor="0.98" vaporized=""/>
    <tripinfo id="fl123_st28800.0.1" depart="28803.00" departLane="123_0" departPos="1.87" departSpeed="0.00" departDelay="1.72" arrival="28905.00" arrivalLane="122[1]_1" arrivalPos="241.27" arrivalSpeed="15.56" duration="102.00" routeLength="1438.52" waitingTime="2.00" waitingCount="1" stopTime="0.00" timeLoss="9.47" rerouteNo="0" devices="tripinfo_fl123_st28800.0.1" vType="t610_D3" speedFactor="1.15" vaporized=""/>
    <tripinfo id="flE3_st28800.0.23" depart="28844.00" departLane="E3_0" departPos="1.87" departSpeed="0.00" departDelay="23.18" arrival="28905.00" arrivalLane="E3_0" arrivalPos="734.36" arrivalSpeed="13.25" duration="61.00" routeLength="732.49" waitingTime="1.00" waitingCount="1" stopTime="0.00" timeLoss="5.35" rerouteNo="0" devices="tripinfo_flE3_st28800.0.23" vType="t610_D3" speedFactor="0.95" vaporized=""/>
    <tripinfo id="flE3_st28800.0.27" depart="28851.00" departLane="E3_0" departPos="1.87" departSpeed="0.00" departDelay="27.76" arrival="28905.00" arrivalLane="E3_1" arrivalPos="734.36" arrivalSpeed="15.56" duration="54.00" routeLength="732.49" waitingTime="0.00" waitingCount="0" stopTime="0.00" timeLoss="6.59" rerouteNo="0" devices="tripinfo_flE3_st28800.0.27" vType="t620_D3" speedFactor="1.20" vaporized=""/>
    <tripinfo id="fl141_st28800.0.1" depart="28812.00" departLane="141_0" departPos="1.87" departSpeed="0.00" departDelay="0.26" arrival="28907.00" arrivalLane="140_0" arrivalPos="243.29" arrivalSpeed="15.56" duration="95.00" routeLength="988.21" waitingTime="8.00" waitingCount="1" stopTime="0.00" timeLoss="30.54" rerouteNo="0" devices="tripinfo_fl141_st28800.0.1" vType="t610_D3" speedFactor="1.15" vaporized=""/>
    <tripinfo id="fl118_st28800.0.6" depart="28816.00" departLane="118_0" departPos="4.47" departSpeed="0.00" departDelay="9.33" arrival="28909.00" arrivalLane="117_3" arrivalPos="236.97" arrivalSpeed="11.67" duration="93.00" routeLength="903.39" waitingTime="0.00" waitingCount="0" stopTime="0.00" timeLoss="14.27" rerouteNo="0" devices="tripinfo_fl118_st28800.0.6" vType="t100_D3" speedFactor="1.03" vaporized=""/>
    <tripinfo id="flE3_st28800.0.28" depart="28852.00" departLane="E3_0" departPos="1.87" departSpeed="0.00" departDelay="28.56" arrival="28909.00" arrivalLane="E3_1" arrivalPos="734.36" arrivalSpeed="13.94" duration="57.00" routeLength="732.49" waitingTime="0.00" waitingCount="0" stopTime="0.00" timeLoss="4.34" rerouteNo="0" devices="tripinfo_flE3_st28800.0.28" vType="t610_D3" speedFactor="1.00" vaporized=""/>
    <tripinfo id="flE3_st28800.0.24" depart="28846.00" departLane="E3_0" departPos="4.47" departSpeed="0.00" departDelay="24.53" arrival="28910.00" arrivalLane="E3_0" arrivalPos="734.36" arrivalSpeed="11.67" duration="64.00" routeLength="729.89" waitingTime="0.00" waitingCount="0" stopTime="0.00" timeLoss="1.20" rerouteNo="0" devices="tripinfo_flE3_st28800.0.24" vType="t100_D3" speedFactor="1.03" vaporized=""/>
    <tripinfo id="fl118_st28800.0.9" depart="28822.00" departLane="118_0" departPos="1.87" departSpeed="0.00" departDelay="9.37" arrival="28912.00" arrivalLane="117_4" arrivalPos="236.97" arrivalSpeed="12.36" duration="90.00" routeLength="905.99" waitingTime="0.00" waitingCount="0" stopTime="0.00" timeLoss="15.62" rerouteNo="0" devices="tripinfo_fl118_st28800.0.9" vType="t610_D3" speedFactor="0.89" vaporized=""/>
    <tripinfo id="flE3_st28800.0.26" depart="28849.00" departLane="E3_0" departPos="1.87" departSpeed="0.00" departDelay="26.21" arrival="28912.00" arrivalLane="E3_0" arrivalPos="734.36" arrivalSpeed="14.56" duration="63.00" routeLength="732.49" waitingTime="0.00" waitingCount="0" stopTime="0.00" timeLoss="12.24" rerouteNo="0" devices="tripinfo_flE3_st28800.0.26" vType="t620_D3" speedFactor="1.05" vaporized=""/>
    <tripinfo id="flE0_st28800.0.24" depart="28848.00" departLane="E0_0" departPos="4.47" departSpeed="0.00" departDelay="16.62" arrival="28913.00" arrivalLane="E2.444_1" arrivalPos="147.68" arrivalSpeed="11.67" duration="65.00" routeLength="507.67" waitingTime="14.00" waitingCount="1" stopTime="0.00" timeLoss="21.30" rerouteNo="0" devices="tripinfo_flE0_st28800.0.24" vType="t100_D3" speedFactor="0.94" vaporized=""/>
    <tripinfo id="fl123_st28800.0.4" depart="28807.00" departLane="123_0" departPos="1.87" departSpeed="0.00" departDelay="2.08" arrival="28915.00" arrivalLane="122[1]_1" arrivalPos="241.27" arrivalSpeed="14.20" duration="108.00" routeLength="1438.52" waitingTime="0.00" waitingCount="0" stopTime="0.00" timeLoss="5.94" rerouteNo="0" devices="tripinfo_fl123_st28800.0.4" vType="t620_D3" speedFactor="1.02" vaporized=""/>
    <tripinfo id="fl123_st28800.0.6" depart="28810.00" departLane="123_0" departPos="1.87" departSpeed="0.00" departDelay="3.48" arrival="28916.00" arrivalLane="122[1]_2" arrivalPos="241.27" arrivalSpeed="14.79" duration="106.00" routeLength="1438.52" waitingTime="0.00" waitingCount="0" stopTime="0.00" timeLoss="8.25" rerouteNo="0" devices="tripinfo_fl123_st28800.0.6" vType="t620_D3" speedFactor="1.06" vaporized=""/>
    <tripinfo id="fl136_st28800.0.15" depart="28842.00" departLane="136_0" departPos="1.87" departSpeed="0.00" departDelay="2.57" arrival="28916.00" arrivalLane="135.7_0" arrivalPos="284.04" arrivalSpeed="13.49" duration="74.00" routeLength="655.63" waitingTime="18.00" waitingCount="2" stopTime="0.00" timeLoss="24.17" rerouteNo="0" devices="tripinfo_fl136_st28800.0.15" vType="t610_D3" speedFactor="0.97" vaporized=""/>
    <tripinfo id="fl121_st25200.0.683" depart="28804.00" departLane="121_0" departPos="1.87" departSpeed="0.00" departDelay="0.33" arrival="28917.00" arrivalLane="117_0" arrivalPos="236.97" arrivalSpeed="13.53" duration="113.00" routeLength="1402.52" waitingTime="3.00" waitingCount="1" stopTime="0.00" timeLoss="8.50" rerouteNo="0" devices="tripinfo_fl121_st25200.0.683" vType="t610_D3" speedFactor="0.97" vaporized=""/>
    <tripinfo id="flE0_st28800.0.25" depart="28850.00" departLane="E0_0" departPos="4.47" departSpeed="0.00" departDelay="16.59" arrival="28918.00" arrivalLane="E2.444_1" arrivalPos="147.68" arrivalSpeed="11.67" duration="68.00" routeLength="518.05" waitingTime="1.00" waitingCount="1" stopTime="0.00" timeLoss="23.30" rerouteNo="0" devices="tripinfo_flE0_st28800.0.25" vType="t100_D3" speedFactor="1.10" vaporized=""/>
    <tripinfo id="flE3_st28800.0.29" depart="28854.00" departLane="E3_0" departPos="4.47" departSpeed="0.00" departDelay="29.97" arrival="28919.00" arrivalLane="E3_1" arrivalPos="734.36" arrivalSpeed="11.67" duration="65.00" routeLength="729.89" waitingTime="1.00" waitingCount="1" stopTime="0.00" timeLoss="2.20" rerouteNo="0" devices="tripinfo_flE3_st28800.0.29" vType="t100_D3" speedFactor="1.18" vaporized=""/>
    <tripinfo id="flE3_st28800.0.30" depart="28856.00" departLane="E3_0" departPos="8.31" departSpeed="0.00" departDelay="31.39" arrival="28920.00" arrivalLane="E3_0" arrivalPos="734.36" arrivalSpeed="11.53" duration="64.00" routeLength="726.05" waitingTime="0.00" waitingCount="0" stopTime="0.00" timeLoss="0.72" rerouteNo="0" devices="tripinfo_flE3_st28800.0.30" vType="t250_D3" speedFactor="0.97" vaporized=""/>
    <tripinfo id="fl136_st28800.0.14" depart="28841.00" departLane="136_0" departPos="1.87" departSpeed="0.00" departDelay="2.20" arrival="28922.00" arrivalLane="135.7_0" arrivalPos="284.04" arrivalSpeed="11.91" duration="81.00" routeLength="655.63" waitingTime="1.00" waitingCount="1" stopTime="0.00" timeLoss="24.65" rerouteNo="0" devices="tripinfo_fl136_st28800.0.14" vType="t610_D3" speedFactor="0.86" vaporized=""/>
    <tripinfo id="fl145_st28800.0.1" depart="28807.00" departLane="145_0" departPos="1.87" departSpeed="0.00" departDelay="0.82" arrival="28923.00" arrivalLane="140_1" arrivalPos="243.29" arrivalSpeed="13.24" duration="116.00" routeLength="1173.06" waitingTime="10.00" waitingCount="1" stopTime="0.00" timeLoss="26.52" rerouteNo="0" devices="tripinfo_fl145_st28800.0.1" vType="t620_D3" speedFactor="0.95" vaporized=""/>
    <tripinfo id="fl145_st28800.0.3" depart="28822.00" departLane="145_0" departPos="1.87" departSpeed="0.00" departDelay="0.74" arrival="28924.00" arrivalLane="140_0" arrivalPos="243.29" arrivalSpeed="15.46" duration="102.00" routeLength="1173.06" waitingTime="11.00" waitingCount="1" stopTime="0.00" timeLoss="25.86" rerouteNo="0" devices="tripinfo_fl145_st28800.0.3" vType="t610_D3" speedFactor="1.11" vaporized=""/>
    <tripinfo id="fl136_st28800.0.21" depart="28853.00" departLane="136_0" departPos="10.31" departSpeed="0.00" departDelay="5.46" arrival="28924.00" arrivalLane="135.7_0" arrivalPos="284.04" arrivalSpeed="11.53" duration="71.00" routeLength="647.19" waitingTime="0.00" waitingCount="0" stopTime="0.00" timeLoss="13.95" rerouteNo="0" devices="tripinfo_fl136_st28800.0.21" vType="t200_D3" speedFactor="0.99" vaporized=""/>
    <tripinfo id="fl121_st28800.0.2" depart="28821.00" departLane="121_0" departPos="1.87" departSpeed="0.00" departDelay="1.12" arrival="28927.00" arrivalLane="117_1" arrivalPos="236.97" arrivalSpeed="14.12" duration="106.00" routeLength="1402.52" waitingTime="0.00" waitingCount="0" stopTime="0.00" timeLoss="5.69" rerouteNo="0" devices="tripinfo_fl121_st28800.0.2" vType="t620_D3" speedFactor="1.02" vaporized=""/>
    <tripinfo id="flE3_st28800.0.31" depart="28858.00" departLane="E3_0" departPos="12.50" departSpeed="0.00" departDelay="33.39" arrival="28927.00" arrivalLane="E3_0" arrivalPos="734.36" arrivalSpeed="11.53" duration="69.00" routeLength="721.86" waitingTime="1.00" waitingCount="1" stopTime="0.00" timeLoss="5.95" rerouteNo="0" devices="tripinfo_flE3_st28800.0.31" vType="t300_D3" speedFactor="1.00" vaporized=""/>
    <tripinfo id="fl141_st28800.0.5" depart="28835.00" departLane="141_0" departPos="1.87" departSpeed="0.00" departDelay="1.80" arrival="28927.00" arrivalLane="140_0" arrivalPos="243.29" arrivalSpeed="11.35" duration="92.00" routeLength="986.12" waitingTime="0.00" waitingCount="0" stopTime="0.00" timeLoss="3.43" rerouteNo="0" devices="tripinfo_fl141_st28800.0.5" vType="t620_D3" speedFactor="0.82" vaporized=""/>
    <tripinfo id="flE3_st28800.0.32" depart="28864.00" departLane="E3_0" departPos="8.31" departSpeed="0.00" departDelay="38.86" arrival="28929.00" arrivalLane="E3_1" arrivalPos="734.36" arrivalSpeed="11.53" duration="65.00" routeLength="726.05" waitingTime="0.00" waitingCount="0" stopTime="0.00" timeLoss="1.11" rerouteNo="0" devices="tripinfo_flE3_st28800.0.32" vType="t250_D3" speedFactor="1.01" vaporized=""/>
    <tripinfo id="flE3_st28800.0.33" depart="28865.00" departLane="E3_0" departPos="1.87" departSpeed="0.00" departDelay="39.74" arrival="28929.00" arrivalLane="E3_0" arrivalPos="734.36" arrivalSpeed="15.56" duration="64.00" routeLength="732.49" waitingTime="0.00" waitingCount="0" stopTime="0.00" timeLoss="16.58" rerouteNo="0" devices="tripinfo_flE3_st28800.0.33" vType="t620_D3" speedFactor="1.15" vaporized=""/>
    <tripinfo id="flE3_st28800.0.34" depart="28867.00" departLane="E3_0" departPos="1.87" departSpeed="0.00" departDelay="41.27" arrival="28931.00" arrivalLane="E3_1" arrivalPos="734.36" arrivalSpeed="12.61" duration="64.00" routeLength="732.49" waitingTime="0.00" waitingCount="0" stopTime="0.00" timeLoss="5.27" rerouteNo="0" devices="tripinfo_flE3_st28800.0.34" vType="t610_D3" speedFactor="0.91" vaporized=""/>
    <tripinfo id="flE3_st28800.0.35" depart="28868.00" departLane="E3_0" departPos="1.87" departSpeed="0.00" departDelay="42.11" arrival="28931.00" arrivalLane="E3_0" arrivalPos="734.36" arrivalSpeed="13.33" duration="63.00" routeLength="732.49" waitingTime="0.00" waitingCount="0" stopTime="0.00" timeLoss="7.90" rerouteNo="0" devices="tripinfo_flE3_st28800.0.35" vType="t610_D3" speedFactor="0.96" vaporized=""/>
    <tripinfo id="fl132_st28800.0.12" depart="28841.00" departLane="132_0" departPos="4.47" departSpeed="0.00" departDelay="0.85" arrival="28931.00" arrivalLane="130_1" arrivalPos="104.41" arrivalSpeed="11.67" duration="90.00" routeLength="728.86" waitingTime="1.00" waitingCount="1" stopTime="0.00" timeLoss="26.17" rerouteNo="0" devices="tripinfo_fl132_st28800.0.12" vType="t100_D3" speedFactor="0.97" vaporized=""/>
    <tripinfo id="fl142_st28800.0.0" depart="28804.00" departLane="142_0" departPos="4.47" departSpeed="0.00" departDelay="0.32" arrival="28932.00" arrivalLane="140_2" arrivalPos="243.29" arrivalSpeed="11.67" duration="128.00" routeLength="1457.07" waitingTime="0.00" waitingCount="0" stopTime="0.00" timeLoss="1.82" rerouteNo="0" devices="tripinfo_fl142_st28800.0.0" vType="t100_D3" speedFactor="1.02" vaporized=""/>