<?xml version="1.0" encoding="UTF-8"?>

<!-- generated on 2023-07-24 13:41:36 by Eclipse SUMO sumo Version 1.18.0
<configuration xmlns:xsi="http://www.w3.org/2001/XMLSchema-instance" xsi:noNamespaceSchemaLocation="http://sumo.dlr.de/xsd/sumoConfiguration.xsd">

    <input>
        <net-file value="net_jkt-new/jkt-new.net.xml"/>
        <route-files value="net_jkt-new/jkt-new.rou.xml"/>
        <additional-files value="net_jkt-new/jkt-new.add.xml"/>
    </input>

    <output>
        <summary-output value="net_jkt-new/output/summarydqn.xml"/>
        <tripinfo-output value="net_jkt-new/output/tripinfodqn.xml"/>
        <statistic-output value="net_jkt-new/output/statisticdqn.xml"/>
    </output>

    <time>
        <begin value=" 28800"/>
        <end value="82800"/>
    </time>

    <processing>
        <time-to-teleport value="-1"/>
        <waiting-time-memory value="1000"/>
        <max-depart-delay value="100000"/>
    </processing>

    <traci_server>
        <remote-port value="57959"/>
    </traci_server>

    <random_number>
        <random value="true"/>
    </random_number>

    <gui_only>
        <gui-settings-file value="net_jkt-new/guisettings.cfg"/>
    </gui_only>

</configuration>
-->

<tripinfos xmlns:xsi="http://www.w3.org/2001/XMLSchema-instance" xsi:noNamespaceSchemaLocation="http://sumo.dlr.de/xsd/tripinfo_file.xsd">
    <tripinfo id="flE3_st28800.0.0" depart="28801.00" departLane="E3_0" departPos="1.87" departSpeed="0.00" departDelay="0.43" arrival="28850.00" arrivalLane="E3_0" arrivalPos="734.36" arrivalSpeed="15.56" duration="49.00" routeLength="732.49" waitingTime="0.00" waitingCount="0" stopTime="0.00" timeLoss="1.75" rerouteNo="0" devices="tripinfo_flE3_st28800.0.0" vType="t610_D3" speedFactor="1.17" vaporized=""/>
    <tripinfo id="flE3_st28800.0.2" depart="28804.00" departLane="E3_0" departPos="1.87" departSpeed="0.00" departDelay="1.50" arrival="28861.00" arrivalLane="E3_0" arrivalPos="734.36" arrivalSpeed="13.20" duration="57.00" routeLength="732.49" waitingTime="0.00" waitingCount="0" stopTime="0.00" timeLoss="1.41" rerouteNo="0" devices="tripinfo_flE3_st28800.0.2" vType="t620_D3" speedFactor="0.95" vaporized=""/>
    <tripinfo id="flE0_st28800.0.0" depart="28803.00" departLane="E0_0" departPos="12.50" departSpeed="0.00" departDelay="0.39" arrival="28862.00" arrivalLane="E7.29_0" arrivalPos="200.50" arrivalSpeed="11.53" duration="59.00" routeLength="457.09" waitingTime="9.00" waitingCount="1" stopTime="0.00" timeLoss="18.78" rerouteNo="0" devices="tripinfo_flE0_st28800.0.0" vType="t300_D3" speedFactor="1.00" vaporized=""/>
    <tripinfo id="flE3_st28800.0.3" depart="28806.00" departLane="E3_0" departPos="1.87" departSpeed="0.00" departDelay="2.83" arrival="28864.00" arrivalLane="E3_0" arrivalPos="734.36" arrivalSpeed="13.50" duration="58.00" routeLength="732.49" waitingTime="0.00" waitingCount="0" stopTime="0.00" timeLoss="2.98" rerouteNo="0" devices="tripinfo_flE3_st28800.0.3" vType="t610_D3" speedFactor="0.97" vaporized=""/>
    <tripinfo id="flE0_st28800.0.5" depart="28812.00" departLane="E0_0" departPos="1.87" departSpeed="0.00" departDelay="5.24" arrival="28865.00" arrivalLane="E7.29_0" arrivalPos="200.50" arrivalSpeed="12.65" duration="53.00" routeLength="467.72" waitingTime="0.00" waitingCount="0" stopTime="0.00" timeLoss="15.73" rerouteNo="0" devices="tripinfo_flE0_st28800.0.5" vType="t610_D3" speedFactor="0.91" vaporized=""/>
    <tripinfo id="flE3_st28800.0.5" depart="28809.00" departLane="E3_0" departPos="1.87" departSpeed="0.00" departDelay="4.44" arrival="28866.00" arrivalLane="E3_0" arrivalPos="734.36" arrivalSpeed="14.17" duration="57.00" routeLength="732.49" waitingTime="0.00" waitingCount="0" stopTime="0.00" timeLoss="4.61" rerouteNo="0" devices="tripinfo_flE3_st28800.0.5" vType="t610_D3" speedFactor="1.02" vaporized=""/>
    <tripinfo id="flE0_st28800.0.6" depart="28814.00" departLane="E0_0" departPos="1.87" departSpeed="0.00" departDelay="4.96" arrival="28867.00" arrivalLane="E7.29_0" arrivalPos="200.50" arrivalSpeed="14.31" duration="53.00" routeLength="467.72" waitingTime="0.00" waitingCount="0" stopTime="0.00" timeLoss="20.16" rerouteNo="0" devices="tripinfo_flE0_st28800.0.6" vType="t610_D3" speedFactor="1.03" vaporized=""/>
    <tripinfo id="flE3_st28800.0.1" depart="28803.00" departLane="E3_0" departPos="4.47" departSpeed="0.00" departDelay="1.89" arrival="28868.00" arrivalLane="E3_1" arrivalPos="734.36" arrivalSpeed="11.67" duration="65.00" routeLength="729.89" waitingTime="0.00" waitingCount="0" stopTime="0.00" timeLoss="1.96" rerouteNo="0" devices="tripinfo_flE3_st28800.0.1" vType="t100_D3" speedFactor="1.13" vaporized=""/>
    <tripinfo id="flE3_st28800.0.6" depart="28811.00" departLane="E3_0" departPos="1.87" departSpeed="0.00" departDelay="5.41" arrival="28868.00" arrivalLane="E3_0" arrivalPos="734.36" arrivalSpeed="14.64" duration="57.00" routeLength="732.49" waitingTime="0.00" waitingCount="0" stopTime="0.00" timeLoss="6.94" rerouteNo="0" devices="tripinfo_flE3_st28800.0.6" vType="t610_D3" speedFactor="1.05" vaporized=""/>
    <tripinfo id="fl131_st28800.0.1" depart="28804.00" departLane="131_0" departPos="1.87" departSpeed="0.00" departDelay="1.49" arrival="28869.00" arrivalLane="128_1" arrivalPos="149.18" arrivalSpeed="15.34" duration="65.00" routeLength="646.88" waitingTime="0.00" waitingCount="0" stopTime="0.00" timeLoss="21.53" rerouteNo="0" devices="tripinfo_fl131_st28800.0.1" vType="t610_D3" speedFactor="1.10" vaporized=""/>
    <tripinfo id="flE3_st28800.0.4" depart="28808.00" departLane="E3_0" departPos="4.47" departSpeed="0.00" departDelay="3.75" arrival="28873.00" arrivalLane="E3_0" arrivalPos="734.36" arrivalSpeed="11.67" duration="65.00" routeLength="729.89" waitingTime="1.00" waitingCount="1" stopTime="0.00" timeLoss="2.20" rerouteNo="0" devices="tripinfo_flE3_st28800.0.4" vType="t100_D3" speedFactor="1.01" vaporized=""/>
    <tripinfo id="flE3_st28800.0.8" depart="28815.00" departLane="E3_0" departPos="1.87" departSpeed="0.00" departDelay="7.39" arrival="28876.00" arrivalLane="E3_1" arrivalPos="734.36" arrivalSpeed="12.47" duration="61.00" routeLength="732.49" waitingTime="0.00" waitingCount="0" stopTime="0.00" timeLoss="2.09" rerouteNo="0" devices="tripinfo_flE3_st28800.0.8" vType="t610_D3" speedFactor="0.90" vaporized=""/>
    <tripinfo id="flE3_st28800.0.7" depart="28812.00" departLane="E3_0" departPos="4.47" departSpeed="0.00" departDelay="6.12" arrival="28878.00" arrivalLane="E3_0" arrivalPos="734.36" arrivalSpeed="11.67" duration="66.00" routeLength="729.89" waitingTime="0.00" waitingCount="0" stopTime="0.00" timeLoss="2.68" rerouteNo="0" devices="tripinfo_flE3_st28800.0.7" vType="t100_D3" speedFactor="0.88" vaporized=""/>
    <tripinfo id="flE3_st28800.0.10" depart="28818.00" departLane="E3_0" departPos="1.87" departSpeed="0.00" departDelay="7.02" arrival="28878.00" arrivalLane="E3_1" arrivalPos="734.36" arrivalSpeed="15.47" duration="60.00" routeLength="732.49" waitingTime="0.00" waitingCount="0" stopTime="0.00" timeLoss="12.00" rerouteNo="0" devices="tripinfo_flE3_st28800.0.10" vType="t610_D3" speedFactor="1.11" vaporized=""/>
    <tripinfo id="flE3_st28800.0.9" depart="28816.00" departLane="E3_0" departPos="1.87" departSpeed="0.00" departDelay="6.35" arrival="28880.00" arrivalLane="E3_0" arrivalPos="734.36" arrivalSpeed="14.16" duration="64.00" routeLength="732.49" waitingTime="0.00" waitingCount="0" stopTime="0.00" timeLoss="11.41" rerouteNo="0" devices="tripinfo_flE3_st28800.0.9" vType="t610_D3" speedFactor="1.02" vaporized=""/>
    <tripinfo id="flE3_st28800.0.12" depart="28821.00" departLane="E3_0" departPos="1.87" departSpeed="0.00" departDelay="5.48" arrival="28880.00" arrivalLane="E3_1" arrivalPos="734.36" arrivalSpeed="14.34" duration="59.00" routeLength="732.49" waitingTime="0.00" waitingCount="0" stopTime="0.00" timeLoss="7.39" rerouteNo="0" devices="tripinfo_flE3_st28800.0.12" vType="t610_D3" speedFactor="1.03" vaporized=""/>
    <tripinfo id="flE3_st28800.0.11" depart="28819.00" departLane="E3_0" departPos="1.87" departSpeed="0.00" departDelay="5.93" arrival="28882.00" arrivalLane="E3_0" arrivalPos="734.36" arrivalSpeed="13.01" duration="63.00" routeLength="732.49" waitingTime="0.00" waitingCount="0" stopTime="0.00" timeLoss="5.96" rerouteNo="0" devices="tripinfo_flE3_st28800.0.11" vType="t620_D3" speedFactor="0.94" vaporized=""/>
    <tripinfo id="flE3_st28800.0.13" depart="28822.00" departLane="E3_0" departPos="1.87" departSpeed="0.00" departDelay="6.10" arrival="28883.00" arrivalLane="E3_0" arrivalPos="734.36" arrivalSpeed="15.04" duration="61.00" routeLength="732.49" waitingTime="0.00" waitingCount="0" stopTime="0.00" timeLoss="12.98" rerouteNo="0" devices="tripinfo_flE3_st28800.0.13" vType="t610_D3" speedFactor="1.10" vaporized=""/>
    <tripinfo id="flE3_st28800.0.14" depart="28824.00" departLane="E3_0" departPos="1.87" departSpeed="0.00" departDelay="7.69" arrival="28883.00" arrivalLane="E3_1" arrivalPos="734.36" arrivalSpeed="13.28" duration="59.00" routeLength="732.49" waitingTime="0.00" waitingCount="0" stopTime="0.00" timeLoss="3.38" rerouteNo="0" devices="tripinfo_flE3_st28800.0.14" vType="t610_D3" speedFactor="0.96" vaporized=""/>
    <tripinfo id="flE0_st28800.0.14" depart="28828.00" departLane="E0_0" departPos="1.87" departSpeed="0.00" departDelay="14.09" arrival="28884.00" arrivalLane="E2.444_1" arrivalPos="147.68" arrivalSpeed="15.56" duration="56.00" routeLength="520.65" waitingTime="9.00" waitingCount="1" stopTime="0.00" timeLoss="21.59" rerouteNo="0" devices="tripinfo_flE0_st28800.0.14" vType="t610_D3" speedFactor="1.17" vaporized=""/>
