<?xml version="1.0" encoding="UTF-8"?>

<!-- generated on 2023-06-19 14:16:00 by Eclipse SUMO sumo Version 1.14.1
<configuration xmlns:xsi="http://www.w3.org/2001/XMLSchema-instance" xsi:noNamespaceSchemaLocation="http://sumo.dlr.de/xsd/sumoConfiguration.xsd">

    <input>
        <net-file value="net_jkt-new/jkt-new.net.xml"/>
        <route-files value="net_jkt-new/jkt-new.rou.xml"/>
        <additional-files value="net_jkt-new/jkt-new.add.xml"/>
    </input>

    <output>
        <summary-output value="net_jkt-new/output/summarydqn.xml"/>
        <tripinfo-output value="net_jkt-new/output/tripinfodqn.xml"/>
        <statistic-output value="net_jkt-new/output/statisticdqn.xml"/>
    </output>

    <time>
        <begin value=" 28800"/>
        <end value="82800"/>
    </time>

    <processing>
        <time-to-teleport value="-1"/>
        <waiting-time-memory value="1000"/>
        <max-depart-delay value="100000"/>
    </processing>

    <traci_server>
        <remote-port value="51798"/>
    </traci_server>

    <random_number>
        <random value="true"/>
    </random_number>

    <gui_only>
        <gui-settings-file value="net_jkt-new/guisettings.cfg"/>
    </gui_only>

</configuration>
-->

<tripinfos xmlns:xsi="http://www.w3.org/2001/XMLSchema-instance" xsi:noNamespaceSchemaLocation="http://sumo.dlr.de/xsd/tripinfo_file.xsd">
    <tripinfo id="flE0_st28800.0.0" depart="28803.00" departLane="E0_0" departPos="12.50" departSpeed="0.00" departDelay="0.39" arrival="28849.00" arrivalLane="E7.29_0" arrivalPos="200.50" arrivalSpeed="11.53" duration="46.00" routeLength="457.09" waitingTime="0.00" waitingCount="0" stopTime="0.00" timeLoss="5.66" rerouteNo="0" devices="tripinfo_flE0_st28800.0.0" vType="t300_D3" speedFactor="1.00" vaporized=""/>
    <tripinfo id="flE3_st28800.0.0" depart="28801.00" departLane="E3_0" departPos="1.87" departSpeed="0.00" departDelay="0.43" arrival="28852.00" arrivalLane="E3_0" arrivalPos="734.36" arrivalSpeed="15.03" duration="51.00" routeLength="732.49" waitingTime="0.00" waitingCount="0" stopTime="0.00" timeLoss="1.67" rerouteNo="0" devices="tripinfo_flE3_st28800.0.0" vType="t610_D3" speedFactor="1.08" vaporized=""/>
    <tripinfo id="flE0_st28800.0.5" depart="28812.00" departLane="E0_0" departPos="1.87" departSpeed="0.00" departDelay="5.24" arrival="28852.00" arrivalLane="E7.29_0" arrivalPos="200.50" arrivalSpeed="14.44" duration="40.00" routeLength="467.72" waitingTime="0.00" waitingCount="0" stopTime="0.00" timeLoss="6.69" rerouteNo="0" devices="tripinfo_flE0_st28800.0.5" vType="t610_D3" speedFactor="1.04" vaporized=""/>
    <tripinfo id="flE3_st28800.0.2" depart="28804.00" departLane="E3_0" departPos="1.87" departSpeed="0.00" departDelay="1.50" arrival="28854.00" arrivalLane="E3_0" arrivalPos="734.36" arrivalSpeed="15.20" duration="50.00" routeLength="732.49" waitingTime="0.00" waitingCount="0" stopTime="0.00" timeLoss="1.70" rerouteNo="0" devices="tripinfo_flE3_st28800.0.2" vType="t620_D3" speedFactor="1.09" vaporized=""/>
    <tripinfo id="flE3_st28800.0.1" depart="28803.00" departLane="E3_0" departPos="4.47" departSpeed="0.00" departDelay="1.89" arrival="28868.00" arrivalLane="E3_0" arrivalPos="734.36" arrivalSpeed="11.67" duration="65.00" routeLength="729.89" waitingTime="0.00" waitingCount="0" stopTime="0.00" timeLoss="1.96" rerouteNo="0" devices="tripinfo_flE3_st28800.0.1" vType="t100_D3" speedFactor="1.02" vaporized=""/>
    <tripinfo id="fl136_st28800.0.2" depart="28806.00" departLane="136_0" departPos="1.87" departSpeed="0.00" departDelay="1.83" arrival="28868.00" arrivalLane="135.7_0" arrivalPos="284.04" arrivalSpeed="14.58" duration="62.00" routeLength="655.63" waitingTime="9.00" waitingCount="1" stopTime="0.00" timeLoss="15.77" rerouteNo="0" devices="tripinfo_fl136_st28800.0.2" vType="t610_D3" speedFactor="1.05" vaporized=""/>
    <tripinfo id="fl131_st28800.0.1" depart="28804.00" departLane="131_0" departPos="1.87" departSpeed="0.00" departDelay="1.49" arrival="28870.00" arrivalLane="128_1" arrivalPos="149.18" arrivalSpeed="13.83" duration="66.00" routeLength="646.88" waitingTime="11.00" waitingCount="1" stopTime="0.00" timeLoss="17.44" rerouteNo="0" devices="tripinfo_fl131_st28800.0.1" vType="t610_D3" speedFactor="1.00" vaporized=""/>
    <tripinfo id="flE3_st28800.0.3" depart="28806.00" departLane="E3_0" departPos="1.87" departSpeed="0.00" departDelay="2.83" arrival="28870.00" arrivalLane="E3_0" arrivalPos="734.36" arrivalSpeed="14.18" duration="64.00" routeLength="732.49" waitingTime="0.00" waitingCount="0" stopTime="0.00" timeLoss="11.74" rerouteNo="0" devices="tripinfo_flE3_st28800.0.3" vType="t610_D3" speedFactor="1.02" vaporized=""/>
    <tripinfo id="flE3_st28800.0.4" depart="28808.00" departLane="E3_0" departPos="4.47" departSpeed="0.00" departDelay="3.75" arrival="28873.00" arrivalLane="E3_1" arrivalPos="734.36" arrivalSpeed="11.67" duration="65.00" routeLength="729.89" waitingTime="1.00" waitingCount="1" stopTime="0.00" timeLoss="2.20" rerouteNo="0" devices="tripinfo_flE3_st28800.0.4" vType="t100_D3" speedFactor="1.05" vaporized=""/>
    <tripinfo id="flE3_st28800.0.5" depart="28809.00" departLane="E3_0" departPos="1.87" departSpeed="0.00" departDelay="4.44" arrival="28873.00" arrivalLane="E3_0" arrivalPos="734.36" arrivalSpeed="13.54" duration="64.00" routeLength="732.49" waitingTime="0.00" waitingCount="0" stopTime="0.00" timeLoss="9.29" rerouteNo="0" devices="tripinfo_flE3_st28800.0.5" vType="t610_D3" speedFactor="0.97" vaporized=""/>
    <tripinfo id="flE3_st28800.0.6" depart="28811.00" departLane="E3_0" departPos="1.87" departSpeed="0.00" departDelay="5.41" arrival="28876.00" arrivalLane="E3_0" arrivalPos="734.36" arrivalSpeed="13.93" duration="65.00" routeLength="732.49" waitingTime="0.00" waitingCount="0" stopTime="0.00" timeLoss="11.64" rerouteNo="0" devices="tripinfo_flE3_st28800.0.6" vType="t610_D3" speedFactor="1.00" vaporized=""/>
    <tripinfo id="flE3_st28800.0.8" depart="28815.00" departLane="E3_0" departPos="1.87" departSpeed="0.00" departDelay="7.39" arrival="28876.00" arrivalLane="E3_1" arrivalPos="734.36" arrivalSpeed="14.11" duration="61.00" routeLength="732.49" waitingTime="0.00" waitingCount="0" stopTime="0.00" timeLoss="8.41" rerouteNo="0" devices="tripinfo_flE3_st28800.0.8" vType="t610_D3" speedFactor="1.02" vaporized=""/>
    <tripinfo id="flE3_st28800.0.10" depart="28818.00" departLane="E3_0" departPos="1.87" departSpeed="0.00" departDelay="7.02" arrival="28878.00" arrivalLane="E3_1" arrivalPos="734.36" arrivalSpeed="13.09" duration="60.00" routeLength="732.49" waitingTime="0.00" waitingCount="0" stopTime="0.00" timeLoss="3.52" rerouteNo="0" devices="tripinfo_flE3_st28800.0.10" vType="t610_D3" speedFactor="0.94" vaporized=""/>
    <tripinfo id="flE3_st28800.0.7" depart="28812.00" departLane="E3_0" departPos="4.47" departSpeed="0.00" departDelay="6.12" arrival="28880.00" arrivalLane="E3_0" arrivalPos="734.36" arrivalSpeed="11.67" duration="68.00" routeLength="729.89" waitingTime="0.00" waitingCount="0" stopTime="0.00" timeLoss="4.80" rerouteNo="0" devices="tripinfo_flE3_st28800.0.7" vType="t100_D3" speedFactor="0.86" vaporized=""/>
    <tripinfo id="flE3_st28800.0.12" depart="28821.00" departLane="E3_0" departPos="1.87" departSpeed="0.00" departDelay="5.48" arrival="28880.00" arrivalLane="E3_1" arrivalPos="734.36" arrivalSpeed="13.74" duration="59.00" routeLength="732.49" waitingTime="0.00" waitingCount="0" stopTime="0.00" timeLoss="4.97" rerouteNo="0" devices="tripinfo_flE3_st28800.0.12" vType="t610_D3" speedFactor="0.99" vaporized=""/>
    <tripinfo id="flE3_st28800.0.14" depart="28824.00" departLane="E3_0" departPos="1.87" departSpeed="0.00" departDelay="7.69" arrival="28882.00" arrivalLane="E3_1" arrivalPos="734.36" arrivalSpeed="13.98" duration="58.00" routeLength="732.49" waitingTime="0.00" waitingCount="0" stopTime="0.00" timeLoss="5.03" rerouteNo="0" devices="tripinfo_flE3_st28800.0.14" vType="t610_D3" speedFactor="1.01" vaporized=""/>
    <tripinfo id="flE3_st28800.0.9" depart="28816.00" departLane="E3_0" departPos="1.87" departSpeed="0.00" departDelay="6.35" arrival="28883.00" arrivalLane="E3_0" arrivalPos="734.36" arrivalSpeed="14.16" duration="67.00" routeLength="732.49" waitingTime="0.00" waitingCount="0" stopTime="0.00" timeLoss="14.55" rerouteNo="0" devices="tripinfo_flE3_st28800.0.9" vType="t610_D3" speedFactor="1.02" vaporized=""/>
    <tripinfo id="flE3_st28800.0.11" depart="28819.00" departLane="E3_0" departPos="1.87" departSpeed="0.00" departDelay="5.93" arrival="28885.00" arrivalLane="E3_0" arrivalPos="734.36" arrivalSpeed="12.96" duration="66.00" routeLength="732.49" waitingTime="0.00" waitingCount="0" stopTime="0.00" timeLoss="9.00" rerouteNo="0" devices="tripinfo_flE3_st28800.0.11" vType="t620_D3" speedFactor="0.93" vaporized=""/>
    <tripinfo id="flE3_st28800.0.13" depart="28822.00" departLane="E3_0" departPos="1.87" departSpeed="0.00" departDelay="6.10" arrival="28885.00" arrivalLane="E3_1" arrivalPos="734.36" arrivalSpeed="12.94" duration="63.00" routeLength="732.49" waitingTime="0.00" waitingCount="0" stopTime="0.00" timeLoss="6.01" rerouteNo="0" devices="tripinfo_flE3_st28800.0.13" vType="t610_D3" speedFactor="0.93" vaporized=""/>
    <tripinfo id="fl118_st25200.0.3005" depart="28801.00" departLane="118_0" departPos="1.87" departSpeed="0.00" departDelay="0.95" arrival="28886.00" arrivalLane="117_4" arrivalPos="236.97" arrivalSpeed="13.97" duration="85.00" routeLength="905.99" waitingTime="16.00" waitingCount="1" stopTime="0.00" timeLoss="19.17" rerouteNo="0" devices="tripinfo_fl118_st25200.0.3005" vType="t610_D3" speedFactor="1.01" vaporized=""/>
    <tripinfo id="flE3_st28800.0.15" depart="28825.00" departLane="E3_0" departPos="4.47" departSpeed="0.00" departDelay="8.66" arrival="28891.00" arrivalLane="E3_0" arrivalPos="734.36" arrivalSpeed="11.67" duration="66.00" routeLength="729.89" waitingTime="0.00" waitingCount="0" stopTime="0.00" timeLoss="3.23" rerouteNo="0" devices="tripinfo_flE3_st28800.0.15" vType="t100_D3" speedFactor="1.07" vaporized=""/>
    <tripinfo id="flE3_st28800.0.18" depart="28832.00" departLane="E3_0" departPos="1.87" departSpeed="0.00" departDelay="13.46" arrival="28892.00" arrivalLane="E3_1" arrivalPos="734.36" arrivalSpeed="13.40" duration="60.00" routeLength="732.49" waitingTime="0.00" waitingCount="0" stopTime="0.00" timeLoss="5.00" rerouteNo="0" devices="tripinfo_flE3_st28800.0.18" vType="t610_D3" speedFactor="0.96" vaporized=""/>
    <tripinfo id="fl118_st28800.0.4" depart="28813.00" departLane="118_0" departPos="1.87" departSpeed="0.00" departDelay="8.33" arrival="28894.00" arrivalLane="117_4" arrivalPos="236.97" arrivalSpeed="13.42" duration="81.00" routeLength="905.99" waitingTime="0.00" waitingCount="0" stopTime="0.00" timeLoss="12.08" rerouteNo="0" devices="tripinfo_fl118_st28800.0.4" vType="t610_D3" speedFactor="0.97" vaporized=""/>
    <tripinfo id="flE3_st28800.0.16" depart="28828.00" departLane="E3_0" departPos="4.47" departSpeed="0.00" departDelay="11.40" arrival="28894.00" arrivalLane="E3_0" arrivalPos="734.36" arrivalSpeed="11.67" duration="66.00" routeLength="729.89" waitingTime="1.00" waitingCount="1" stopTime="0.00" timeLoss="2.99" rerouteNo="0" devices="tripinfo_flE3_st28800.0.16" vType="t100_D3" speedFactor="1.03" vaporized=""/>
    <tripinfo id="flE3_st28800.0.20" depart="28837.00" departLane="E3_0" departPos="1.87" departSpeed="0.00" departDelay="18.24" arrival="28894.00" arrivalLane="E3_1" arrivalPos="734.36" arrivalSpeed="13.67" duration="57.00" routeLength="732.49" waitingTime="1.00" waitingCount="1" stopTime="0.00" timeLoss="3.39" rerouteNo="0" devices="tripinfo_flE3_st28800.0.20" vType="t620_D3" speedFactor="0.98" vaporized=""/>
    <tripinfo id="fl141_st28800.0.1" depart="28812.00" departLane="141_0" departPos="1.87" departSpeed="0.00" departDelay="0.26" arrival="28897.00" arrivalLane="140_0" arrivalPos="243.29" arrivalSpeed="15.52" duration="85.00" routeLength="988.21" waitingTime="4.00" waitingCount="1" stopTime="0.00" timeLoss="20.64" rerouteNo="0" devices="tripinfo_fl141_st28800.0.1" vType="t610_D3" speedFactor="1.12" vaporized=""/>
    <tripinfo id="flE3_st28800.0.17" depart="28830.00" departLane="E3_0" departPos="1.87" departSpeed="0.00" departDelay="12.64" arrival="28897.00" arrivalLane="E3_0" arrivalPos="734.36" arrivalSpeed="11.31" duration="67.00" routeLength="732.49" waitingTime="0.00" waitingCount="0" stopTime="0.00" timeLoss="1.86" rerouteNo="0" devices="tripinfo_flE3_st28800.0.17" vType="t610_D3" speedFactor="0.81" vaporized=""/>
    <tripinfo id="fl118_st28800.0.3" depart="28809.00" departLane="118_0" departPos="1.87" departSpeed="0.00" departDelay="4.95" arrival="28900.00" arrivalLane="117_4" arrivalPos="236.97" arrivalSpeed="12.46" duration="91.00" routeLength="905.99" waitingTime="0.00" waitingCount="0" stopTime="0.00" timeLoss="16.89" rerouteNo="0" devices="tripinfo_fl118_st28800.0.3" vType="t610_D3" speedFactor="0.90" vaporized=""/>
    <tripinfo id="flE3_st28800.0.22" depart="28842.00" departLane="E3_0" departPos="1.87" departSpeed="0.00" departDelay="21.49" arrival="28901.00" arrivalLane="E3_1" arrivalPos="734.36" arrivalSpeed="13.06" duration="59.00" routeLength="732.49" waitingTime="0.00" waitingCount="0" stopTime="0.00" timeLoss="2.18" rerouteNo="0" devices="tripinfo_flE3_st28800.0.22" vType="t610_D3" speedFactor="0.94" vaporized=""/>
    <tripinfo id="flE3_st28800.0.19" depart="28833.00" departLane="E3_0" departPos="12.50" departSpeed="0.00" departDelay="14.35" arrival="28902.00" arrivalLane="E3_0" arrivalPos="734.36" arrivalSpeed="11.53" duration="69.00" routeLength="721.86" waitingTime="0.00" waitingCount="0" stopTime="0.00" timeLoss="5.79" rerouteNo="0" devices="tripinfo_flE3_st28800.0.19" vType="t300_D3" speedFactor="1.00" vaporized=""/>
    <tripinfo id="flE3_st28800.0.23" depart="28843.00" departLane="E3_0" departPos="1.87" departSpeed="0.00" departDelay="22.18" arrival="28903.00" arrivalLane="E3_1" arrivalPos="734.36" arrivalSpeed="13.20" duration="60.00" routeLength="732.49" waitingTime="0.00" waitingCount="0" stopTime="0.00" timeLoss="4.51" rerouteNo="0" devices="tripinfo_flE3_st28800.0.23" vType="t610_D3" speedFactor="0.95" vaporized=""/>
    <tripinfo id="fl131_st28800.0.7" depart="28838.00" departLane="131_0" departPos="1.87" departSpeed="0.00" departDelay="6.40" arrival="28904.00" arrivalLane="128_1" arrivalPos="149.18" arrivalSpeed="14.64" duration="66.00" routeLength="646.88" waitingTime="7.00" waitingCount="1" stopTime="0.00" timeLoss="20.49" rerouteNo="0" devices="tripinfo_fl131_st28800.0.7" vType="t610_D3" speedFactor="1.05" vaporized=""/>
    <tripinfo id="fl123_st28800.0.1" depart="28803.00" departLane="123_0" departPos="1.87" departSpeed="0.00" departDelay="1.72" arrival="28906.00" arrivalLane="122[1]_1" arrivalPos="241.27" arrivalSpeed="15.18" duration="103.00" routeLength="1438.52" waitingTime="2.00" waitingCount="1" stopTime="0.00" timeLoss="8.07" rerouteNo="0" devices="tripinfo_fl123_st28800.0.1" vType="t610_D3" speedFactor="1.09" vaporized=""/>
    <tripinfo id="fl118_st28800.0.6" depart="28816.00" departLane="118_0" departPos="4.47" departSpeed="0.00" departDelay="9.33" arrival="28906.00" arrivalLane="117_3" arrivalPos="236.97" arrivalSpeed="11.67" duration="90.00" routeLength="903.39" waitingTime="1.00" waitingCount="1" stopTime="0.00" timeLoss="10.85" rerouteNo="0" devices="tripinfo_fl118_st28800.0.6" vType="t100_D3" speedFactor="0.95" vaporized=""/>
    <tripinfo id="flE3_st28800.0.21" depart="28838.00" departLane="E3_0" departPos="1.87" departSpeed="0.00" departDelay="19.05" arrival="28906.00" arrivalLane="E3_0" arrivalPos="734.36" arrivalSpeed="12.27" duration="68.00" routeLength="732.49" waitingTime="0.00" waitingCount="0" stopTime="0.00" timeLoss="7.69" rerouteNo="0" devices="tripinfo_flE3_st28800.0.21" vType="t610_D3" speedFactor="0.88" vaporized=""/>
    <tripinfo id="fl118_st28800.0.7" depart="28817.00" departLane="118_0" departPos="1.87" departSpeed="0.00" departDelay="7.24" arrival="28908.00" arrivalLane="117_4" arrivalPos="236.97" arrivalSpeed="13.43" duration="91.00" routeLength="905.99" waitingTime="0.00" waitingCount="0" stopTime="0.00" timeLoss="22.10" rerouteNo="0" devices="tripinfo_fl118_st28800.0.7" vType="t610_D3" speedFactor="0.97" vaporized=""/>
    <tripinfo id="fl131_st28800.0.8" depart="28839.00" departLane="131_0" departPos="1.87" departSpeed="0.00" departDelay="7.29" arrival="28908.00" arrivalLane="128_1" arrivalPos="149.18" arrivalSpeed="14.73" duration="69.00" routeLength="646.88" waitingTime="0.00" waitingCount="0" stopTime="0.00" timeLoss="23.56" rerouteNo="0" devices="tripinfo_fl131_st28800.0.8" vType="t620_D3" speedFactor="1.06" vaporized=""/>
    <tripinfo id="flE3_st28800.0.25" depart="28847.00" departLane="E3_0" departPos="1.87" departSpeed="0.00" departDelay="24.23" arrival="28909.00" arrivalLane="E3_0" arrivalPos="734.36" arrivalSpeed="14.22" duration="62.00" routeLength="732.49" waitingTime="0.00" waitingCount="0" stopTime="0.00" timeLoss="9.72" rerouteNo="0" devices="tripinfo_flE3_st28800.0.25" vType="t610_D3" speedFactor="1.02" vaporized=""/>
    <tripinfo id="fl118_st28800.0.9" depart="28820.00" departLane="118_0" departPos="1.87" departSpeed="0.00" departDelay="7.37" arrival="28910.00" arrivalLane="117_4" arrivalPos="236.97" arrivalSpeed="13.28" duration="90.00" routeLength="905.99" waitingTime="0.00" waitingCount="0" stopTime="0.00" timeLoss="20.75" rerouteNo="0" devices="tripinfo_fl118_st28800.0.9" vType="t610_D3" speedFactor="0.96" vaporized=""/>
    <tripinfo id="flE3_st28800.0.24" depart="28845.00" departLane="E3_0" departPos="4.47" departSpeed="0.00" departDelay="23.53" arrival="28910.00" arrivalLane="E3_1" arrivalPos="734.36" arrivalSpeed="11.67" duration="65.00" routeLength="729.89" waitingTime="1.00" waitingCount="1" stopTime="0.00" timeLoss="2.27" rerouteNo="0" devices="tripinfo_flE3_st28800.0.24" vType="t100_D3" speedFactor="1.26" vaporized=""/>
    <tripinfo id="fl129_st28800.0.3" depart="28814.00" departLane="129_0" departPos="1.87" departSpeed="0.00" departDelay="0.44" arrival="28911.00" arrivalLane="122[1]_1" arrivalPos="241.27" arrivalSpeed="13.19" duration="97.00" routeLength="1181.25" waitingTime="0.00" waitingCount="0" stopTime="0.00" timeLoss="5.13" rerouteNo="0" devices="tripinfo_fl129_st28800.0.3" vType="t610_D3" speedFactor="0.95" vaporized=""/>
    <tripinfo id="fl129_st28800.0.6" depart="28819.00" departLane="129_0" departPos="1.87" departSpeed="0.00" departDelay="2.76" arrival="28912.00" arrivalLane="122[1]_1" arrivalPos="241.27" arrivalSpeed="15.17" duration="93.00" routeLength="1181.25" waitingTime="0.00" waitingCount="0" stopTime="0.00" timeLoss="13.55" rerouteNo="0" devices="tripinfo_fl129_st28800.0.6" vType="t610_D3" speedFactor="1.09" vaporized=""/>
    <tripinfo id="flE3_st28800.0.26" depart="28849.00" departLane="E3_0" departPos="1.87" departSpeed="0.00" departDelay="26.21" arrival="28912.00" arrivalLane="E3_1" arrivalPos="734.36" arrivalSpeed="15.10" duration="63.00" routeLength="732.49" waitingTime="0.00" waitingCount="0" stopTime="0.00" timeLoss="13.94" rerouteNo="0" devices="tripinfo_flE3_st28800.0.26" vType="t620_D3" speedFactor="1.09" vaporized=""/>
    <tripinfo id="flE3_st28800.0.27" depart="28850.00" departLane="E3_0" departPos="1.87" departSpeed="0.00" departDelay="26.76" arrival="28912.00" arrivalLane="E3_0" arrivalPos="734.36" arrivalSpeed="14.39" duration="62.00" routeLength="732.49" waitingTime="0.00" waitingCount="0" stopTime="0.00" timeLoss="10.26" rerouteNo="0" devices="tripinfo_flE3_st28800.0.27" vType="t620_D3" speedFactor="1.04" vaporized=""/>
    <tripinfo id="fl118_st28800.0.8" depart="28819.00" departLane="118_0" departPos="1.87" departSpeed="0.00" departDelay="7.03" arrival="28915.00" arrivalLane="117_3" arrivalPos="236.97" arrivalSpeed="12.07" duration="96.00" routeLength="905.99" waitingTime="0.00" waitingCount="0" stopTime="0.00" timeLoss="19.62" rerouteNo="0" devices="tripinfo_fl118_st28800.0.8" vType="t610_D3" speedFactor="0.87" vaporized=""/>
    <tripinfo id="flE3_st28800.0.28" depart="28852.00" departLane="E3_0" departPos="1.87" departSpeed="0.00" departDelay="28.56" arrival="28915.00" arrivalLane="E3_0" arrivalPos="734.36" arrivalSpeed="14.89" duration="63.00" routeLength="732.49" waitingTime="0.00" waitingCount="0" stopTime="0.00" timeLoss="12.83" rerouteNo="0" devices="tripinfo_flE3_st28800.0.28" vType="t610_D3" speedFactor="1.07" vaporized=""/>
    <tripinfo id="fl118_st28800.0.10" depart="28822.00" departLane="118_0" departPos="1.87" departSpeed="0.00" departDelay="9.30" arrival="28917.00" arrivalLane="117_4" arrivalPos="236.97" arrivalSpeed="14.03" duration="95.00" routeLength="905.99" waitingTime="1.00" waitingCount="1" stopTime="0.00" timeLoss="29.41" rerouteNo="0" devices="tripinfo_fl118_st28800.0.10" vType="t620_D3" speedFactor="1.01" vaporized=""/>
    <tripinfo id="fl121_st25200.0.683" depart="28804.00" departLane="121_0" departPos="1.87" departSpeed="0.00" departDelay="0.33" arrival="28920.00" arrivalLane="117_0" arrivalPos="236.97" arrivalSpeed="15.56" duration="116.00" routeLength="1402.52" waitingTime="19.00" waitingCount="2" stopTime="0.00" timeLoss="25.14" rerouteNo="0" devices="tripinfo_fl121_st25200.0.683" vType="t610_D3" speedFactor="1.17" vaporized=""/>
    <tripinfo id="flE3_st28800.0.29" depart="28854.00" departLane="E3_0" departPos="4.47" departSpeed="0.00" departDelay="29.97" arrival="28920.00" arrivalLane="E3_0" arrivalPos="734.36" arrivalSpeed="11.53" duration="66.00" routeLength="729.89" waitingTime="0.00" waitingCount="0" stopTime="0.00" timeLoss="1.86" rerouteNo="0" devices="tripinfo_flE3_st28800.0.29" vType="t100_D3" speedFactor="0.83" vaporized=""/>
    <tripinfo id="fl121_st25200.0.684" depart="28806.00" departLane="121_0" departPos="1.87" departSpeed="0.00" departDelay="2.29" arrival="28922.00" arrivalLane="117_0" arrivalPos="236.97" arrivalSpeed="13.31" duration="116.00" routeLength="1402.52" waitingTime="0.00" waitingCount="0" stopTime="0.00" timeLoss="9.39" rerouteNo="0" devices="tripinfo_fl121_st25200.0.684" vType="t620_D3" speedFactor="0.96" vaporized=""/>
    <tripinfo id="flE3_st28800.0.30" depart="28857.00" departLane="E3_0" departPos="8.31" departSpeed="0.00" departDelay="32.39" arrival="28922.00" arrivalLane="E3_0" arrivalPos="734.36" arrivalSpeed="11.53" duration="65.00" routeLength="726.05" waitingTime="0.00" waitingCount="0" stopTime="0.00" timeLoss="1.82" rerouteNo="0" devices="tripinfo_flE3_st28800.0.30" vType="t250_D3" speedFactor="1.02" vaporized=""/>
    <tripinfo id="flE3_st28800.0.31" depart="28858.00" departLane="E3_0" departPos="12.50" departSpeed="0.00" departDelay="33.39" arrival="28927.00" arrivalLane="E3_0" arrivalPos="734.36" arrivalSpeed="11.53" duration="69.00" routeLength="721.86" waitingTime="0.00" waitingCount="0" stopTime="0.00" timeLoss="6.01" rerouteNo="0" devices="tripinfo_flE3_st28800.0.31" vType="t300_D3" speedFactor="1.00" vaporized=""/>
    <tripinfo id="flE3_st28800.0.32" depart="28862.00" departLane="E3_0" departPos="8.31" departSpeed="0.00" departDelay="36.86" arrival="28927.00" arrivalLane="E3_1" arrivalPos="734.36" arrivalSpeed="11.53" duration="65.00" routeLength="726.05" waitingTime="1.00" waitingCount="1" stopTime="0.00" timeLoss="1.64" rerouteNo="0" devices="tripinfo_flE3_st28800.0.32" vType="t250_D3" speedFactor="1.06" vaporized=""/>
    <tripinfo id="flE0_st28800.0.6" depart="28814.00" departLane="E0_0" departPos="1.87" departSpeed="0.00" departDelay="4.96" arrival="28928.00" arrivalLane="E7.29_0" arrivalPos="200.50" arrivalSpeed="12.21" duration="114.00" routeLength="467.72" waitingTime="70.00" waitingCount="1" stopTime="0.00" timeLoss="74.77" rerouteNo="0" devices="tripinfo_flE0_st28800.0.6" vType="t610_D3" speedFactor="0.88" vaporized=""/>
    <tripinfo id="fl129_st28800.0.7" depart="28821.00" departLane="129_0" departPos="1.87" departSpeed="0.00" departDelay="4.29" arrival="28928.00" arrivalLane="122[1]_1" arrivalPos="241.27" arrivalSpeed="14.57" duration="107.00" routeLength="1181.25" waitingTime="14.00" waitingCount="1" stopTime="0.00" timeLoss="24.59" rerouteNo="0" devices="tripinfo_fl129_st28800.0.7" vType="t610_D3" speedFactor="1.05" vaporized=""/>
    <tripinfo id="flE3_st28800.0.33" depart="28863.00" departLane="E3_0" departPos="1.87" departSpeed="0.00" departDelay="37.74" arrival="28929.00" arrivalLane="E3_0" arrivalPos="734.36" arrivalSpeed="15.53" duration="66.00" routeLength="732.49" waitingTime="0.00" waitingCount="0" stopTime="0.00" timeLoss="18.63" rerouteNo="0" devices="tripinfo_flE3_st28800.0.33" vType="t620_D3" speedFactor="1.12" vaporized=""/>
    <tripinfo id="flE3_st28800.0.34" depart="28865.00" departLane="E3_0" departPos="1.87" departSpeed="0.00" departDelay="39.27" arrival="28929.00" arrivalLane="E3_1" arrivalPos="734.36" arrivalSpeed="14.08" duration="64.00" routeLength="732.49" waitingTime="0.00" waitingCount="0" stopTime="0.00" timeLoss="11.61" rerouteNo="0" devices="tripinfo_flE3_st28800.0.34" vType="t610_D3" speedFactor="1.01" vaporized=""/>
    <tripinfo id="fl123_st28800.0.6" depart="28810.00" departLane="123_0" departPos="1.87" departSpeed="0.00" departDelay="3.48" arrival="28930.00" arrivalLane="122[1]_2" arrivalPos="241.27" arrivalSpeed="15.56" duration="120.00" routeLength="1438.52" waitingTime="5.00" waitingCount="5" stopTime="0.00" timeLoss="27.00" rerouteNo="0" devices="tripinfo_fl123_st28800.0.6" vType="t620_D3" speedFactor="1.14" vaporized=""/>
    <tripinfo id="flE3_st28800.0.35" depart="28866.00" departLane="E3_0" departPos="1.87" departSpeed="0.00" departDelay="40.11" arrival="28932.00" arrivalLane="E3_0" arrivalPos="734.36" arrivalSpeed="14.17" duration="66.00" routeLength="732.49" waitingTime="0.00" waitingCount="0" stopTime="0.00" timeLoss="13.31" rerouteNo="0" devices="tripinfo_flE3_st28800.0.35" vType="t610_D3" speedFactor="1.02" vaporized=""/>
    <tripinfo id="fl141_st28800.0.5" depart="28835.00" departLane="141_0" departPos="1.87" departSpeed="0.00" departDelay="1.80" arrival="28932.00" arrivalLane="140_0" arrivalPos="243.29" arrivalSpeed="15.56" duration="97.00" routeLength="988.21" waitingTime="25.00" waitingCount="2" stopTime="0.00" timeLoss="32.71" rerouteNo="0" devices="tripinfo_fl141_st28800.0.5" vType="t620_D3" speedFactor="1.12" vaporized=""/>
    <tripinfo id="fl123_st28800.0.4" depart="28807.00" departLane="123_0" departPos="1.87" departSpeed="0.00" departDelay="2.08" arrival="28933.00" arrivalLane="122[1]_0" arrivalPos="241.27" arrivalSpeed="13.05" duration="126.00" routeLength="1438.52" waitingTime="10.00" waitingCount="1" stopTime="0.00" timeLoss="15.23" rerouteNo="0" devices="tripinfo_fl123_st28800.0.4" vType="t620_D3" speedFactor="0.94" vaporized=""/>
    <tripinfo id="flE3_st28800.0.37" depart="28871.00" departLane="E3_0" departPos="1.87" departSpeed="0.00" departDelay="42.74" arrival="28934.00" arrivalLane="E3_0" arrivalPos="734.36" arrivalSpeed="13.40" duration="63.00" routeLength="732.49" waitingTime="0.00" waitingCount="0" stopTime="0.00" timeLoss="7.72" rerouteNo="0" devices="tripinfo_flE3_st28800.0.37" vType="t610_D3" speedFactor="0.96" vaporized=""/>
    <tripinfo id="flE3_st28800.0.36" depart="28870.00" departLane="E3_0" departPos="10.31" departSpeed="0.00" departDelay="41.93" arrival="28935.00" arrivalLane="E3_1" arrivalPos="734.36" arrivalSpeed="11.53" duration="65.00" routeLength="724.05" waitingTime="0.00" waitingCount="0" stopTime="0.00" timeLoss="1.26" rerouteNo="0" devices="tripinfo_flE3_st28800.0.36" vType="t200_D3" speedFactor="0.98" vaporized=""/>
    <tripinfo id="flE3_st28800.0.39" depart="28874.00" departLane="E3_0" departPos="1.87" departSpeed="0.00" departDelay="43.30" arrival="28936.00" arrivalLane="E3_0" arrivalPos="734.36" arrivalSpeed="14.91" duration="62.00" routeLength="732.49" waitingTime="0.00" waitingCount="0" stopTime="0.00" timeLoss="12.33" rerouteNo="0" devices="tripinfo_flE3_st28800.0.39" vType="t610_D3" speedFactor="1.07" vaporized=""/>
    <tripinfo id="fl165_st28800.0.0" depart="28804.00" departLane="165_0" departPos="1.87" departSpeed="0.00" departDelay="0.13" arrival="28937.00" arrivalLane="E2.444_0" arrivalPos="147.68" arrivalSpeed="10.32" duration="133.00" routeLength="1170.67" waitingTime="16.00" waitingCount="1" stopTime="0.00" timeLoss="18.82" rerouteNo="0" devices="tripinfo_fl165_st28800.0.0" vType="t610_D3" speedFactor="0.74" vaporized=""/>
    <tripinfo id="flE3_st28800.0.38" depart="28873.00" departLane="E3_0" departPos="1.87" departSpeed="0.00" departDelay="44.12" arrival="28937.00" arrivalLane="E3_1" arrivalPos="734.36" arrivalSpeed="13.06" duration="64.00" routeLength="732.49" waitingTime="0.00" waitingCount="0" stopTime="0.00" timeLoss="7.27" rerouteNo="0" devices="tripinfo_flE3_st28800.0.38" vType="t620_D3" speedFactor="0.94" vaporized=""/>
    <tripinfo id="fl123_st28800.0.5" depart="28809.00" departLane="123_0" departPos="1.87" departSpeed="0.00" departDelay="4.03" arrival="28938.00" arrivalLane="122[1]_1" arrivalPos="241.27" arrivalSpeed="14.36" duration="129.00" routeLength="1438.52" waitingTime="3.00" waitingCount="3" stopTime="0.00" timeLoss="28.22" rerouteNo="0" devices="tripinfo_fl123_st28800.0.5" vType="t610_D3" speedFactor="1.03" vaporized=""/>
    <tripinfo id="flE3_st28800.0.40" depart="28876.00" departLane="E3_0" departPos="1.87" departSpeed="0.00" departDelay="44.56" arrival="28938.00" arrivalLane="E3_0" arrivalPos="734.36" arrivalSpeed="13.01" duration="62.00" routeLength="732.49" waitingTime="0.00" waitingCount="0" stopTime="0.00" timeLoss="5.59" rerouteNo="0" devices="tripinfo_flE3_st28800.0.40" vType="t620_D3" speedFactor="0.94" vaporized=""/>