<?xml version="1.0" encoding="UTF-8"?>

<!-- generated on 2023-07-29 17:05:33 by Eclipse SUMO GUI Version 1.11.0
<configuration xmlns:xsi="http://www.w3.org/2001/XMLSchema-instance" xsi:noNamespaceSchemaLocation="http://sumo.dlr.de/xsd/sumoConfiguration.xsd">

    <input>
        <net-file value="net_jkt-new/jkt-new.net.xml"/>
        <route-files value="net_jkt-new/jkt-new.rou.xml"/>
        <additional-files value="net_jkt-new/jkt-new.add.xml"/>
    </input>

    <output>
        <summary-output value="net_jkt-new/output/summarydqn.xml"/>
        <tripinfo-output value="net_jkt-new/output/tripinfodqn.xml"/>
        <statistic-output value="net_jkt-new/output/statisticdqn.xml"/>
    </output>

    <time>
        <begin value=" 25200"/>
        <end value="82800"/>
    </time>

    <processing>
        <time-to-teleport value="-1"/>
        <waiting-time-memory value="1000"/>
        <max-depart-delay value="100000"/>
    </processing>

    <traci_server>
        <remote-port value="50454"/>
    </traci_server>

    <random_number>
        <random value="true"/>
    </random_number>

    <gui_only>
        <gui-settings-file value="net_jkt-new/guisettings.cfg"/>
        <quit-on-end value="true"/>
        <start value="true"/>
    </gui_only>

</configuration>
-->

<tripinfos xmlns:xsi="http://www.w3.org/2001/XMLSchema-instance" xsi:noNamespaceSchemaLocation="http://sumo.dlr.de/xsd/tripinfo_file.xsd">
    <tripinfo id="flE3_st25200.0.0" depart="25202.00" departLane="E3_0" departPos="1.87" departSpeed="0.00" departDelay="0.66" arrival="25255.00" arrivalLane="E3_0" arrivalPos="734.36" arrivalSpeed="14.33" duration="53.00" routeLength="732.49" waitingTime="0.00" waitingCount="0" stopTime="0.00" timeLoss="1.56" rerouteNo="0" devices="tripinfo_flE3_st25200.0.0" vType="t620_D3" speedFactor="1.03" vaporized=""/>
    <tripinfo id="flE3_st25200.0.1" depart="25204.00" departLane="E3_0" departPos="1.87" departSpeed="0.00" departDelay="2.61" arrival="25259.00" arrivalLane="E3_0" arrivalPos="734.36" arrivalSpeed="13.88" duration="55.00" routeLength="732.49" waitingTime="0.00" waitingCount="0" stopTime="0.00" timeLoss="1.49" rerouteNo="0" devices="tripinfo_flE3_st25200.0.1" vType="t620_D3" speedFactor="1.00" vaporized=""/>
