<?xml version="1.0" encoding="UTF-8"?>

<!-- generated on 2023-03-07 16:01:11 by Eclipse SUMO sumo Version 1.14.1
<configuration xmlns:xsi="http://www.w3.org/2001/XMLSchema-instance" xsi:noNamespaceSchemaLocation="http://sumo.dlr.de/xsd/sumoConfiguration.xsd">

    <input>
        <net-file value="net_jkt-new/jkt-new.net.xml"/>
        <route-files value="net_jkt-new/jkt-new.rou.xml"/>
        <additional-files value="net_jkt-new/jkt-new.add.xml"/>
    </input>

    <output>
        <summary-output value="net_jkt-new/output/summarydqn.xml"/>
        <tripinfo-output value="net_jkt-new/output/tripinfodqn.xml"/>
        <statistic-output value="net_jkt-new/output/statisticdqn.xml"/>
    </output>

    <time>
        <begin value=" 21600"/>
        <end value="82800"/>
    </time>

    <processing>
        <time-to-teleport value="-1"/>
        <waiting-time-memory value="10000"/>
        <max-depart-delay value="100000"/>
    </processing>

    <report>
        <no-warnings value="true"/>
        <duration-log.disable value="true"/>
    </report>

    <traci_server>
        <remote-port value="56127"/>
    </traci_server>

    <random_number>
        <random value="true"/>
    </random_number>

    <gui_only>
        <gui-settings-file value="net_jkt-new/guisettings.cfg"/>
    </gui_only>

</configuration>
-->

<tripinfos xmlns:xsi="http://www.w3.org/2001/XMLSchema-instance" xsi:noNamespaceSchemaLocation="http://sumo.dlr.de/xsd/tripinfo_file.xsd">
    <tripinfo id="flE3_st21600.0.1" depart="21603.00" departLane="E3_0" departPos="1.87" departSpeed="0.00" departDelay="2.49" arrival="21654.00" arrivalLane="E3_0" arrivalPos="734.36" arrivalSpeed="14.93" duration="51.00" routeLength="732.49" waitingTime="0.00" waitingCount="0" stopTime="0.00" timeLoss="1.66" rerouteNo="0" devices="tripinfo_flE3_st21600.0.1" vType="t620_D3" speedFactor="1.07" vaporized=""/>
    <tripinfo id="flE3_st21600.0.0" depart="21601.00" departLane="E3_0" departPos="1.87" departSpeed="0.00" departDelay="0.60" arrival="21657.00" arrivalLane="E3_0" arrivalPos="734.36" arrivalSpeed="13.62" duration="56.00" routeLength="732.49" waitingTime="0.00" waitingCount="0" stopTime="0.00" timeLoss="1.46" rerouteNo="0" devices="tripinfo_flE3_st21600.0.0" vType="t620_D3" speedFactor="0.98" vaporized=""/>
    <tripinfo id="flE3_st21600.0.3" depart="21606.00" departLane="E3_0" departPos="1.87" departSpeed="0.00" departDelay="1.23" arrival="21663.00" arrivalLane="E3_0" arrivalPos="734.36" arrivalSpeed="13.57" duration="57.00" routeLength="732.49" waitingTime="0.00" waitingCount="0" stopTime="0.00" timeLoss="2.25" rerouteNo="0" devices="tripinfo_flE3_st21600.0.3" vType="t620_D3" speedFactor="0.98" vaporized=""/>
    <tripinfo id="flE3_st21600.0.5" depart="21609.00" departLane="E3_0" departPos="1.87" departSpeed="0.00" departDelay="2.29" arrival="21663.00" arrivalLane="E3_1" arrivalPos="734.36" arrivalSpeed="14.64" duration="54.00" routeLength="732.49" waitingTime="0.00" waitingCount="0" stopTime="0.00" timeLoss="3.01" rerouteNo="0" devices="tripinfo_flE3_st21600.0.5" vType="t620_D3" speedFactor="1.05" vaporized=""/>
    <tripinfo id="flE3_st21600.0.4" depart="21607.00" departLane="E3_0" departPos="1.87" departSpeed="0.00" departDelay="1.06" arrival="21666.00" arrivalLane="E3_1" arrivalPos="734.36" arrivalSpeed="15.05" duration="59.00" routeLength="732.49" waitingTime="0.00" waitingCount="0" stopTime="0.00" timeLoss="9.75" rerouteNo="0" devices="tripinfo_flE3_st21600.0.4" vType="t620_D3" speedFactor="1.08" vaporized=""/>
    <tripinfo id="flE3_st21600.0.2" depart="21604.00" departLane="E3_0" departPos="4.47" departSpeed="0.00" departDelay="1.06" arrival="21669.00" arrivalLane="E3_0" arrivalPos="734.36" arrivalSpeed="11.67" duration="65.00" routeLength="729.89" waitingTime="0.00" waitingCount="0" stopTime="0.00" timeLoss="1.72" rerouteNo="0" devices="tripinfo_flE3_st21600.0.2" vType="t100_D3" speedFactor="0.97" vaporized=""/>
    <tripinfo id="fl118_st21600.0.0" depart="21601.00" departLane="118_0" departPos="1.87" departSpeed="0.00" departDelay="0.47" arrival="21671.00" arrivalLane="117_4" arrivalPos="236.97" arrivalSpeed="14.38" duration="70.00" routeLength="905.99" waitingTime="2.00" waitingCount="1" stopTime="0.00" timeLoss="5.57" rerouteNo="0" devices="tripinfo_fl118_st21600.0.0" vType="t620_D3" speedFactor="1.04" vaporized=""/>
    <tripinfo id="flE3_st21600.0.8" depart="21618.00" departLane="E3_0" departPos="1.87" departSpeed="0.00" departDelay="9.46" arrival="21671.00" arrivalLane="E3_1" arrivalPos="734.36" arrivalSpeed="14.72" duration="53.00" routeLength="732.49" waitingTime="1.00" waitingCount="1" stopTime="0.00" timeLoss="2.66" rerouteNo="0" devices="tripinfo_flE3_st21600.0.8" vType="t610_D3" speedFactor="1.06" vaporized=""/>
    <tripinfo id="flE3_st21600.0.10" depart="21623.00" departLane="E3_0" departPos="1.87" departSpeed="0.00" departDelay="9.87" arrival="21673.00" arrivalLane="E3_1" arrivalPos="734.36" arrivalSpeed="15.56" duration="50.00" routeLength="732.49" waitingTime="0.00" waitingCount="0" stopTime="0.00" timeLoss="2.72" rerouteNo="0" devices="tripinfo_flE3_st21600.0.10" vType="t620_D3" speedFactor="1.17" vaporized=""/>
    <tripinfo id="fl118_st18000.0.1156" depart="21604.00" departLane="118_0" departPos="1.87" departSpeed="0.00" departDelay="2.79" arrival="21674.00" arrivalLane="117_4" arrivalPos="236.97" arrivalSpeed="14.75" duration="70.00" routeLength="905.99" waitingTime="1.00" waitingCount="1" stopTime="0.00" timeLoss="7.43" rerouteNo="0" devices="tripinfo_fl118_st18000.0.1156" vType="t610_D3" speedFactor="1.06" vaporized=""/>
    <tripinfo id="fl132_st21600.0.2" depart="21614.00" departLane="132_0" departPos="1.87" departSpeed="0.00" departDelay="0.26" arrival="21678.00" arrivalLane="164_0" arrivalPos="52.99" arrivalSpeed="13.29" duration="64.00" routeLength="321.73" waitingTime="10.00" waitingCount="1" stopTime="0.00" timeLoss="39.21" rerouteNo="0" devices="tripinfo_fl132_st21600.0.2" vType="t620_D3" speedFactor="0.96" vaporized=""/>
    <tripinfo id="flE3_st21600.0.6" depart="21610.00" departLane="E3_0" departPos="1.87" departSpeed="0.00" departDelay="2.08" arrival="21680.00" arrivalLane="E3_0" arrivalPos="734.36" arrivalSpeed="10.90" duration="70.00" routeLength="732.49" waitingTime="0.00" waitingCount="0" stopTime="0.00" timeLoss="2.07" rerouteNo="0" devices="tripinfo_flE3_st21600.0.6" vType="t610_D3" speedFactor="0.78" vaporized=""/>
    <tripinfo id="flE3_st21600.0.7" depart="21614.00" departLane="E3_0" departPos="12.50" departSpeed="0.00" departDelay="5.72" arrival="21683.00" arrivalLane="E3_0" arrivalPos="734.36" arrivalSpeed="11.53" duration="69.00" routeLength="721.86" waitingTime="0.00" waitingCount="0" stopTime="0.00" timeLoss="5.83" rerouteNo="0" devices="tripinfo_flE3_st21600.0.7" vType="t300_D3" speedFactor="1.00" vaporized=""/>
    <tripinfo id="flE3_st21600.0.12" depart="21626.00" departLane="E3_0" departPos="1.87" departSpeed="0.00" departDelay="11.52" arrival="21683.00" arrivalLane="E3_1" arrivalPos="734.36" arrivalSpeed="13.49" duration="57.00" routeLength="732.49" waitingTime="0.00" waitingCount="0" stopTime="0.00" timeLoss="2.24" rerouteNo="0" devices="tripinfo_flE3_st21600.0.12" vType="t610_D3" speedFactor="0.97" vaporized=""/>
    <tripinfo id="flE3_st21600.0.9" depart="21619.00" departLane="E3_0" departPos="1.87" departSpeed="0.00" departDelay="8.59" arrival="21686.00" arrivalLane="E3_0" arrivalPos="734.36" arrivalSpeed="12.45" duration="67.00" routeLength="732.49" waitingTime="0.00" waitingCount="0" stopTime="0.00" timeLoss="7.19" rerouteNo="0" devices="tripinfo_flE3_st21600.0.9" vType="t620_D3" speedFactor="0.90" vaporized=""/>
    <tripinfo id="fl118_st21600.0.2" depart="21606.00" departLane="118_0" departPos="1.87" departSpeed="0.00" departDelay="4.40" arrival="21690.00" arrivalLane="117_4" arrivalPos="236.97" arrivalSpeed="14.95" duration="84.00" routeLength="905.99" waitingTime="12.00" waitingCount="1" stopTime="0.00" timeLoss="22.36" rerouteNo="0" devices="tripinfo_fl118_st21600.0.2" vType="t610_D3" speedFactor="1.08" vaporized=""/>
    <tripinfo id="flE3_st21600.0.11" depart="21624.00" departLane="E3_0" departPos="4.47" departSpeed="0.00" departDelay="10.79" arrival="21690.00" arrivalLane="E3_0" arrivalPos="734.36" arrivalSpeed="11.67" duration="66.00" routeLength="729.89" waitingTime="0.00" waitingCount="0" stopTime="0.00" timeLoss="2.76" rerouteNo="0" devices="tripinfo_flE3_st21600.0.11" vType="t100_D3" speedFactor="1.04" vaporized=""/>
    <tripinfo id="flE3_st21600.0.13" depart="21627.00" departLane="E3_0" departPos="4.47" departSpeed="0.00" departDelay="12.13" arrival="21693.00" arrivalLane="E3_0" arrivalPos="734.36" arrivalSpeed="11.67" duration="66.00" routeLength="729.89" waitingTime="0.00" waitingCount="0" stopTime="0.00" timeLoss="3.38" rerouteNo="0" devices="tripinfo_flE3_st21600.0.13" vType="t100_D3" speedFactor="1.19" vaporized=""/>
    <tripinfo id="fl118_st21600.0.3" depart="21607.00" departLane="118_0" departPos="1.87" departSpeed="0.00" departDelay="4.50" arrival="21695.00" arrivalLane="117_4" arrivalPos="236.97" arrivalSpeed="13.90" duration="88.00" routeLength="905.99" waitingTime="1.00" waitingCount="1" stopTime="0.00" timeLoss="20.95" rerouteNo="0" devices="tripinfo_fl118_st21600.0.3" vType="t610_D3" speedFactor="1.00" vaporized=""/>
    <tripinfo id="fl132_st21600.0.3" depart="21616.00" departLane="132_0" departPos="1.87" departSpeed="0.00" departDelay="1.78" arrival="21695.00" arrivalLane="130_1" arrivalPos="104.41" arrivalSpeed="15.17" duration="79.00" routeLength="731.46" waitingTime="5.00" waitingCount="5" stopTime="0.00" timeLoss="30.11" rerouteNo="0" devices="tripinfo_fl132_st21600.0.3" vType="t620_D3" speedFactor="1.09" vaporized=""/>
    <tripinfo id="flE3_st21600.0.15" depart="21632.00" departLane="E3_0" departPos="1.87" departSpeed="0.00" departDelay="14.99" arrival="21695.00" arrivalLane="E3_0" arrivalPos="734.36" arrivalSpeed="15.28" duration="63.00" routeLength="732.49" waitingTime="0.00" waitingCount="0" stopTime="0.00" timeLoss="14.61" rerouteNo="0" devices="tripinfo_flE3_st21600.0.15" vType="t610_D3" speedFactor="1.10" vaporized=""/>
    <tripinfo id="flE3_st21600.0.14" depart="21631.00" departLane="E3_0" departPos="4.47" departSpeed="0.00" departDelay="15.03" arrival="21696.00" arrivalLane="E3_1" arrivalPos="734.36" arrivalSpeed="11.67" duration="65.00" routeLength="729.89" waitingTime="0.00" waitingCount="0" stopTime="0.00" timeLoss="1.96" rerouteNo="0" devices="tripinfo_flE3_st21600.0.14" vType="t100_D3" speedFactor="1.08" vaporized=""/>
    <tripinfo id="flE3_st21600.0.17" depart="21636.00" departLane="E3_0" departPos="1.87" departSpeed="0.00" departDelay="15.94" arrival="21697.00" arrivalLane="E3_0" arrivalPos="734.36" arrivalSpeed="12.95" duration="61.00" routeLength="732.49" waitingTime="0.00" waitingCount="0" stopTime="0.00" timeLoss="4.11" rerouteNo="0" devices="tripinfo_flE3_st21600.0.17" vType="t610_D3" speedFactor="0.93" vaporized=""/>
    <tripinfo id="flE3_st21600.0.16" depart="21634.00" departLane="E3_0" departPos="1.87" departSpeed="0.00" departDelay="15.41" arrival="21698.00" arrivalLane="E3_1" arrivalPos="734.36" arrivalSpeed="15.51" duration="64.00" routeLength="732.49" waitingTime="0.00" waitingCount="0" stopTime="0.00" timeLoss="15.98" rerouteNo="0" devices="tripinfo_flE3_st21600.0.16" vType="t610_D3" speedFactor="1.12" vaporized=""/>
    <tripinfo id="flE3_st21600.0.19" depart="21639.00" departLane="E3_0" departPos="1.87" departSpeed="0.00" departDelay="17.37" arrival="21699.00" arrivalLane="E3_0" arrivalPos="734.36" arrivalSpeed="15.56" duration="60.00" routeLength="732.49" waitingTime="0.00" waitingCount="0" stopTime="0.00" timeLoss="12.33" rerouteNo="0" devices="tripinfo_flE3_st21600.0.19" vType="t610_D3" speedFactor="1.26" vaporized=""/>
    <tripinfo id="flE3_st21600.0.18" depart="21638.00" departLane="E3_0" departPos="1.87" departSpeed="0.00" departDelay="17.04" arrival="21700.00" arrivalLane="E3_0" arrivalPos="734.36" arrivalSpeed="13.04" duration="62.00" routeLength="732.49" waitingTime="0.00" waitingCount="0" stopTime="0.00" timeLoss="5.06" rerouteNo="0" devices="tripinfo_flE3_st21600.0.18" vType="t610_D3" speedFactor="0.94" vaporized=""/>
    <tripinfo id="fl132_st21600.0.5" depart="21620.00" departLane="132_0" departPos="1.87" departSpeed="0.00" departDelay="4.32" arrival="21704.00" arrivalLane="130_1" arrivalPos="104.41" arrivalSpeed="14.80" duration="84.00" routeLength="731.46" waitingTime="5.00" waitingCount="5" stopTime="0.00" timeLoss="33.08" rerouteNo="0" devices="tripinfo_fl132_st21600.0.5" vType="t610_D3" speedFactor="1.07" vaporized=""/>
    <tripinfo id="flE3_st21600.0.23" depart="21646.00" departLane="E3_0" departPos="1.87" departSpeed="0.00" departDelay="16.67" arrival="21705.00" arrivalLane="E3_1" arrivalPos="734.36" arrivalSpeed="13.22" duration="59.00" routeLength="732.49" waitingTime="0.00" waitingCount="0" stopTime="0.00" timeLoss="3.44" rerouteNo="0" devices="tripinfo_flE3_st21600.0.23" vType="t610_D3" speedFactor="0.95" vaporized=""/>
    <tripinfo id="flE3_st21600.0.20" depart="21641.00" departLane="E3_0" departPos="4.47" departSpeed="0.00" departDelay="15.92" arrival="21706.00" arrivalLane="E3_0" arrivalPos="734.36" arrivalSpeed="11.67" duration="65.00" routeLength="729.89" waitingTime="0.00" waitingCount="0" stopTime="0.00" timeLoss="1.96" rerouteNo="0" devices="tripinfo_flE3_st21600.0.20" vType="t100_D3" speedFactor="0.94" vaporized=""/>
    <tripinfo id="fl51_st21600.0.4" depart="21626.00" departLane="51_0" departPos="1.87" departSpeed="0.00" departDelay="0.51" arrival="21706.00" arrivalLane="148_0" arrivalPos="229.40" arrivalSpeed="14.21" duration="80.00" routeLength="923.12" waitingTime="8.00" waitingCount="1" stopTime="0.00" timeLoss="13.81" rerouteNo="0" devices="tripinfo_fl51_st21600.0.4" vType="t610_D3" speedFactor="1.02" vaporized=""/>
    <tripinfo id="flE3_st21600.0.25" depart="21649.00" departLane="E3_0" departPos="1.87" departSpeed="0.00" departDelay="18.60" arrival="21707.00" arrivalLane="E3_1" arrivalPos="734.36" arrivalSpeed="13.72" duration="58.00" routeLength="732.49" waitingTime="0.00" waitingCount="0" stopTime="0.00" timeLoss="4.32" rerouteNo="0" devices="tripinfo_flE3_st21600.0.25" vType="t610_D3" speedFactor="0.99" vaporized=""/>
    <tripinfo id="flE0_st21600.0.5" depart="21609.00" departLane="E0_0" departPos="4.47" departSpeed="0.00" departDelay="1.32" arrival="21709.00" arrivalLane="E7.29_0" arrivalPos="200.50" arrivalSpeed="11.67" duration="100.00" routeLength="465.12" waitingTime="55.00" waitingCount="1" stopTime="0.00" timeLoss="59.30" rerouteNo="0" devices="tripinfo_flE0_st21600.0.5" vType="t100_D3" speedFactor="1.07" vaporized=""/>
    <tripinfo id="flE3_st21600.0.21" depart="21642.00" departLane="E3_0" departPos="1.87" departSpeed="0.00" departDelay="14.46" arrival="21710.00" arrivalLane="E3_0" arrivalPos="734.36" arrivalSpeed="11.14" duration="68.00" routeLength="732.49" waitingTime="0.00" waitingCount="0" stopTime="0.00" timeLoss="1.30" rerouteNo="0" devices="tripinfo_flE3_st21600.0.21" vType="t620_D3" speedFactor="0.80" vaporized=""/>
    <tripinfo id="flE3_st21600.0.27" depart="21654.00" departLane="E3_0" departPos="1.87" departSpeed="0.00" departDelay="22.91" arrival="21710.00" arrivalLane="E3_1" arrivalPos="734.36" arrivalSpeed="13.95" duration="56.00" routeLength="732.49" waitingTime="0.00" waitingCount="0" stopTime="0.00" timeLoss="2.67" rerouteNo="0" devices="tripinfo_flE3_st21600.0.27" vType="t610_D3" speedFactor="1.00" vaporized=""/>
    <tripinfo id="flE3_st21600.0.22" depart="21644.00" departLane="E3_0" departPos="1.87" departSpeed="0.00" departDelay="15.36" arrival="21711.00" arrivalLane="E3_0" arrivalPos="734.36" arrivalSpeed="13.01" duration="67.00" routeLength="732.49" waitingTime="0.00" waitingCount="0" stopTime="0.00" timeLoss="10.56" rerouteNo="0" devices="tripinfo_flE3_st21600.0.22" vType="t610_D3" speedFactor="0.94" vaporized=""/>
    <tripinfo id="fl132_st21600.0.11" depart="21634.00" departLane="132_0" departPos="1.87" departSpeed="0.00" departDelay="6.39" arrival="21712.00" arrivalLane="130_1" arrivalPos="104.41" arrivalSpeed="14.27" duration="78.00" routeLength="731.46" waitingTime="2.00" waitingCount="2" stopTime="0.00" timeLoss="25.43" rerouteNo="0" devices="tripinfo_fl132_st21600.0.11" vType="t610_D3" speedFactor="1.03" vaporized=""/>
    <tripinfo id="flE3_st21600.0.24" depart="21647.00" departLane="E3_0" departPos="1.87" departSpeed="0.00" departDelay="16.67" arrival="21712.00" arrivalLane="E3_1" arrivalPos="734.36" arrivalSpeed="13.51" duration="65.00" routeLength="732.49" waitingTime="0.00" waitingCount="0" stopTime="0.00" timeLoss="10.54" rerouteNo="0" devices="tripinfo_flE3_st21600.0.24" vType="t610_D3" speedFactor="0.97" vaporized=""/>
    <tripinfo id="flE0_st21600.0.18" depart="21633.00" departLane="E0_0" departPos="4.47" departSpeed="0.00" departDelay="10.35" arrival="21716.00" arrivalLane="E2.444_1" arrivalPos="147.68" arrivalSpeed="11.67" duration="83.00" routeLength="507.67" waitingTime="0.00" waitingCount="0" stopTime="0.00" timeLoss="39.30" rerouteNo="0" devices="tripinfo_flE0_st21600.0.18" vType="t100_D3" speedFactor="0.87" vaporized=""/>
    <tripinfo id="flE0_st21600.0.20" depart="21638.00" departLane="E0_0" departPos="4.47" departSpeed="0.00" departDelay="14.48" arrival="21716.00" arrivalLane="E7.29_0" arrivalPos="200.50" arrivalSpeed="11.67" duration="78.00" routeLength="465.12" waitingTime="0.00" waitingCount="0" stopTime="0.00" timeLoss="37.53" rerouteNo="0" devices="tripinfo_flE0_st21600.0.20" vType="t100_D3" speedFactor="0.93" vaporized=""/>
    <tripinfo id="flE3_st21600.0.26" depart="21650.00" departLane="E3_0" departPos="4.47" departSpeed="0.00" departDelay="19.36" arrival="21717.00" arrivalLane="E3_0" arrivalPos="734.36" arrivalSpeed="11.67" duration="67.00" routeLength="729.89" waitingTime="0.00" waitingCount="0" stopTime="0.00" timeLoss="3.85" rerouteNo="0" devices="tripinfo_flE3_st21600.0.26" vType="t100_D3" speedFactor="0.97" vaporized=""/>
    <tripinfo id="flE3_st21600.0.28" depart="21656.00" departLane="E3_0" departPos="4.47" departSpeed="0.00" departDelay="24.52" arrival="21720.00" arrivalLane="E3_0" arrivalPos="734.36" arrivalSpeed="11.67" duration="64.00" routeLength="729.89" waitingTime="0.00" waitingCount="0" stopTime="0.00" timeLoss="1.33" rerouteNo="0" devices="tripinfo_flE3_st21600.0.28" vType="t100_D3" speedFactor="1.00" vaporized=""/>
    <tripinfo id="flE3_st21600.0.30" depart="21659.00" departLane="E3_0" departPos="1.87" departSpeed="0.00" departDelay="23.99" arrival="21722.00" arrivalLane="E3_0" arrivalPos="734.36" arrivalSpeed="14.39" duration="63.00" routeLength="732.49" waitingTime="0.00" waitingCount="0" stopTime="0.00" timeLoss="11.68" rerouteNo="0" devices="tripinfo_flE3_st21600.0.30" vType="t610_D3" speedFactor="1.04" vaporized=""/>
    <tripinfo id="flE3_st21600.0.29" depart="21658.00" departLane="E3_0" departPos="4.47" departSpeed="0.00" departDelay="24.10" arrival="21723.00" arrivalLane="E3_0" arrivalPos="734.36" arrivalSpeed="11.67" duration="65.00" routeLength="729.89" waitingTime="0.00" waitingCount="0" stopTime="0.00" timeLoss="1.96" rerouteNo="0" devices="tripinfo_flE3_st21600.0.29" vType="t100_D3" speedFactor="0.96" vaporized=""/>
    <tripinfo id="flE3_st21600.0.32" depart="21662.00" departLane="E3_0" departPos="1.87" departSpeed="0.00" departDelay="26.13" arrival="21725.00" arrivalLane="E3_0" arrivalPos="734.36" arrivalSpeed="14.81" duration="63.00" routeLength="732.49" waitingTime="0.00" waitingCount="0" stopTime="0.00" timeLoss="13.11" rerouteNo="0" devices="tripinfo_flE3_st21600.0.32" vType="t610_D3" speedFactor="1.07" vaporized=""/>
    <tripinfo id="fl123_st21600.0.2" depart="21606.00" departLane="123_0" departPos="1.87" departSpeed="0.00" departDelay="4.83" arrival="21726.00" arrivalLane="122[1]_0" arrivalPos="241.27" arrivalSpeed="13.54" duration="120.00" routeLength="1438.52" waitingTime="8.00" waitingCount="1" stopTime="0.00" timeLoss="13.46" rerouteNo="0" devices="tripinfo_fl123_st21600.0.2" vType="t620_D3" speedFactor="0.97" vaporized=""/>
    <tripinfo id="fl131_st21600.0.8" depart="21633.00" departLane="131_0" departPos="1.87" departSpeed="0.00" departDelay="0.97" arrival="21727.00" arrivalLane="128_1" arrivalPos="149.18" arrivalSpeed="13.04" duration="94.00" routeLength="646.88" waitingTime="13.00" waitingCount="9" stopTime="0.00" timeLoss="42.98" rerouteNo="0" devices="tripinfo_fl131_st21600.0.8" vType="t620_D3" speedFactor="0.94" vaporized=""/>
    <tripinfo id="flE3_st21600.0.31" depart="21661.00" departLane="E3_0" departPos="4.47" departSpeed="0.00" departDelay="25.44" arrival="21727.00" arrivalLane="E3_1" arrivalPos="734.36" arrivalSpeed="11.67" duration="66.00" routeLength="729.89" waitingTime="0.00" waitingCount="0" stopTime="0.00" timeLoss="2.66" rerouteNo="0" devices="tripinfo_flE3_st21600.0.31" vType="t100_D3" speedFactor="1.05" vaporized=""/>
    <tripinfo id="fl136_st21600.0.22" depart="21665.00" departLane="136_0" departPos="10.31" departSpeed="0.00" departDelay="3.05" arrival="21727.00" arrivalLane="135.7_0" arrivalPos="284.04" arrivalSpeed="11.53" duration="62.00" routeLength="647.19" waitingTime="2.00" waitingCount="1" stopTime="0.00" timeLoss="5.71" rerouteNo="0" devices="tripinfo_fl136_st21600.0.22" vType="t200_D3" speedFactor="1.02" vaporized=""/>
    <tripinfo id="flE3_st21600.0.33" depart="21664.00" departLane="E3_0" departPos="1.87" departSpeed="0.00" departDelay="28.05" arrival="21728.00" arrivalLane="E3_0" arrivalPos="734.36" arrivalSpeed="14.12" duration="64.00" routeLength="732.49" waitingTime="0.00" waitingCount="0" stopTime="0.00" timeLoss="11.87" rerouteNo="0" devices="tripinfo_flE3_st21600.0.33" vType="t610_D3" speedFactor="1.02" vaporized=""/>
    <tripinfo id="flE3_st21600.0.34" depart="21667.00" departLane="E3_0" departPos="1.87" departSpeed="0.00" departDelay="29.15" arrival="21729.00" arrivalLane="E3_0" arrivalPos="734.36" arrivalSpeed="13.26" duration="62.00" routeLength="732.49" waitingTime="0.00" waitingCount="0" stopTime="0.00" timeLoss="6.09" rerouteNo="0" devices="tripinfo_flE3_st21600.0.34" vType="t610_D3" speedFactor="0.95" vaporized=""/>
    <tripinfo id="flE3_st21600.0.37" depart="21672.00" departLane="E3_0" departPos="1.87" departSpeed="0.00" departDelay="30.29" arrival="21730.00" arrivalLane="E3_1" arrivalPos="734.36" arrivalSpeed="15.28" duration="58.00" routeLength="732.49" waitingTime="0.00" waitingCount="0" stopTime="0.00" timeLoss="10.07" rerouteNo="0" devices="tripinfo_flE3_st21600.0.37" vType="t610_D3" speedFactor="1.10" vaporized=""/>
    <tripinfo id="flE3_st21600.0.35" depart="21668.00" departLane="E3_0" departPos="1.87" departSpeed="0.00" departDelay="29.91" arrival="21731.00" arrivalLane="E3_0" arrivalPos="734.36" arrivalSpeed="15.56" duration="63.00" routeLength="732.49" waitingTime="0.00" waitingCount="0" stopTime="0.00" timeLoss="15.22" rerouteNo="0" devices="tripinfo_flE3_st21600.0.35" vType="t620_D3" speedFactor="1.13" vaporized=""/>
    <tripinfo id="fl131_st21600.0.12" depart="21649.00" departLane="131_0" departPos="1.87" departSpeed="0.00" departDelay="0.70" arrival="21732.00" arrivalLane="128_1" arrivalPos="149.18" arrivalSpeed="13.19" duration="83.00" routeLength="646.88" waitingTime="2.00" waitingCount="2" stopTime="0.00" timeLoss="32.14" rerouteNo="0" devices="tripinfo_fl131_st21600.0.12" vType="t610_D3" speedFactor="0.95" vaporized=""/>
    <tripinfo id="fl51_st21600.0.6" depart="21655.00" departLane="51_0" departPos="1.87" departSpeed="0.00" departDelay="0.75" arrival="21732.00" arrivalLane="148_1" arrivalPos="229.40" arrivalSpeed="15.33" duration="77.00" routeLength="923.12" waitingTime="12.00" waitingCount="1" stopTime="0.00" timeLoss="15.58" rerouteNo="0" devices="tripinfo_fl51_st21600.0.6" vType="t610_D3" speedFactor="1.10" vaporized=""/>
    <tripinfo id="fl118_st21600.0.4" depart="21609.00" departLane="118_0" departPos="1.87" departSpeed="0.00" departDelay="6.49" arrival="21733.00" arrivalLane="117_4" arrivalPos="236.97" arrivalSpeed="12.37" duration="124.00" routeLength="905.99" waitingTime="32.00" waitingCount="1" stopTime="0.00" timeLoss="49.92" rerouteNo="0" devices="tripinfo_fl118_st21600.0.4" vType="t610_D3" speedFactor="0.89" vaporized=""/>
    <tripinfo id="fl132_st21600.0.17" depart="21651.00" departLane="132_0" departPos="1.87" departSpeed="0.00" departDelay="17.26" arrival="21734.00" arrivalLane="130_1" arrivalPos="104.41" arrivalSpeed="13.76" duration="83.00" routeLength="731.46" waitingTime="8.00" waitingCount="8" stopTime="0.00" timeLoss="28.73" rerouteNo="0" devices="tripinfo_fl132_st21600.0.17" vType="t620_D3" speedFactor="0.99" vaporized=""/>
    <tripinfo id="flE3_st21600.0.36" depart="21670.00" departLane="E3_0" departPos="4.47" departSpeed="0.00" departDelay="28.35" arrival="21736.00" arrivalLane="E3_1" arrivalPos="734.36" arrivalSpeed="11.67" duration="66.00" routeLength="729.89" waitingTime="1.00" waitingCount="1" stopTime="0.00" timeLoss="3.14" rerouteNo="0" devices="tripinfo_flE3_st21600.0.36" vType="t100_D3" speedFactor="1.08" vaporized=""/>
    <tripinfo id="flE3_st21600.0.39" depart="21675.00" departLane="E3_0" departPos="1.87" departSpeed="0.00" departDelay="31.81" arrival="21736.00" arrivalLane="E3_0" arrivalPos="734.36" arrivalSpeed="13.16" duration="61.00" routeLength="732.49" waitingTime="0.00" waitingCount="0" stopTime="0.00" timeLoss="5.10" rerouteNo="0" devices="tripinfo_flE3_st21600.0.39" vType="t610_D3" speedFactor="0.95" vaporized=""/>
    <tripinfo id="fl123_st18000.0.1862" depart="21604.00" departLane="123_0" departPos="1.87" departSpeed="0.00" departDelay="2.92" arrival="21737.00" arrivalLane="122[1]_0" arrivalPos="241.27" arrivalSpeed="11.87" duration="133.00" routeLength="1438.52" waitingTime="0.00" waitingCount="0" stopTime="0.00" timeLoss="11.41" rerouteNo="0" devices="tripinfo_fl123_st18000.0.1862" vType="t620_D3" speedFactor="0.85" vaporized=""/>
    <tripinfo id="fl132_st21600.0.6" depart="21622.00" departLane="132_0" departPos="1.87" departSpeed="0.00" departDelay="5.68" arrival="21737.00" arrivalLane="164_0" arrivalPos="52.99" arrivalSpeed="15.56" duration="115.00" routeLength="1409.58" waitingTime="0.00" waitingCount="0" stopTime="0.00" timeLoss="21.77" rerouteNo="0" devices="tripinfo_fl132_st21600.0.6" vType="t610_D3" speedFactor="1.16" vaporized=""/>
    <tripinfo id="fl136_st21600.0.2" depart="21619.00" departLane="136_0" departPos="1.87" departSpeed="0.00" departDelay="0.82" arrival="21737.00" arrivalLane="130_1" arrivalPos="104.41" arrivalSpeed="15.36" duration="118.00" routeLength="1560.71" waitingTime="6.00" waitingCount="1" stopTime="0.00" timeLoss="14.59" rerouteNo="0" devices="tripinfo_fl136_st21600.0.2" vType="t610_D3" speedFactor="1.11" vaporized=""/>
    <tripinfo id="fl123_st21600.0.35" depart="21661.00" departLane="123_0" departPos="1.87" departSpeed="0.00" departDelay="27.16" arrival="21737.00" arrivalLane="125_0" arrivalPos="144.07" arrivalSpeed="15.44" duration="76.00" routeLength="838.04" waitingTime="0.00" waitingCount="0" stopTime="0.00" timeLoss="21.63" rerouteNo="0" devices="tripinfo_fl123_st21600.0.35" vType="t610_D3" speedFactor="1.11" vaporized=""/>
    <tripinfo id="fl118_st21600.0.6" depart="21612.00" departLane="118_0" departPos="1.87" departSpeed="0.00" departDelay="8.47" arrival="21739.00" arrivalLane="117_3" arrivalPos="236.97" arrivalSpeed="12.31" duration="127.00" routeLength="905.99" waitingTime="3.00" waitingCount="3" stopTime="0.00" timeLoss="51.73" rerouteNo="0" devices="tripinfo_fl118_st21600.0.6" vType="t610_D3" speedFactor="0.89" vaporized=""/>
    <tripinfo id="flE3_st21600.0.41" depart="21678.00" departLane="E3_0" departPos="1.87" departSpeed="0.00" departDelay="33.69" arrival="21739.00" arrivalLane="E3_0" arrivalPos="734.36" arrivalSpeed="12.75" duration="61.00" routeLength="732.49" waitingTime="0.00" waitingCount="0" stopTime="0.00" timeLoss="2.80" rerouteNo="0" devices="tripinfo_flE3_st21600.0.41" vType="t610_D3" speedFactor="0.92" vaporized=""/>
    <tripinfo id="flE3_st21600.0.38" depart="21674.00" departLane="E3_0" departPos="4.47" departSpeed="0.00" departDelay="31.57" arrival="21740.00" arrivalLane="E3_0" arrivalPos="734.36" arrivalSpeed="11.67" duration="66.00" routeLength="729.89" waitingTime="0.00" waitingCount="0" stopTime="0.00" timeLoss="2.67" rerouteNo="0" devices="tripinfo_flE3_st21600.0.38" vType="t100_D3" speedFactor="1.12" vaporized=""/>
    <tripinfo id="fl126_st21600.0.0" depart="21607.00" departLane="126_0" departPos="1.87" departSpeed="0.00" departDelay="0.46" arrival="21742.00" arrivalLane="117_0" arrivalPos="236.97" arrivalSpeed="13.93" duration="135.00" routeLength="1678.83" waitingTime="10.00" waitingCount="1" stopTime="0.00" timeLoss="13.56" rerouteNo="0" devices="tripinfo_fl126_st21600.0.0" vType="t610_D3" speedFactor="1.00" vaporized=""/>
    <tripinfo id="fl136_st21600.0.1" depart="21611.00" departLane="136_0" departPos="1.87" departSpeed="0.00" departDelay="0.02" arrival="21742.00" arrivalLane="130_1" arrivalPos="104.41" arrivalSpeed="13.26" duration="131.00" routeLength="1560.71" waitingTime="5.00" waitingCount="1" stopTime="0.00" timeLoss="11.57" rerouteNo="0" devices="tripinfo_fl136_st21600.0.1" vType="t620_D3" speedFactor="0.95" vaporized=""/>
    <tripinfo id="fl116_st21600.0.2" depart="21605.00" departLane="116_0" departPos="1.87" departSpeed="0.00" departDelay="1.09" arrival="21743.00" arrivalLane="140_3" arrivalPos="243.29" arrivalSpeed="14.44" duration="138.00" routeLength="1604.86" waitingTime="12.00" waitingCount="1" stopTime="0.00" timeLoss="25.50" rerouteNo="0" devices="tripinfo_fl116_st21600.0.2" vType="t620_D3" speedFactor="1.04" vaporized=""/>